# vtk DataFile Version 2.0
Generated by vtk_extract.c
ASCII
DATASET STRUCTURED_POINTS
DIMENSIONS 32 32 32
ORIGIN 0 0 0
SPACING 1 1 1
POINT_DATA 32768
SCALARS something float 1
LOOKUP_TABLE default
-8.210241e-01
-9.040529e-01
-9.239711e-01
-9.022366e-01
-8.070479e-01
-5.509783e-01
 9.886066e-02
 6.154303e-01
 8.061769e-01
 8.875873e-01
 9.239358e-01
 9.387073e-01
 9.414164e-01
 9.336711e-01
 9.135799e-01
 8.788337e-01
 8.301466e-01
 7.791251e-01
 7.504133e-01
 7.617595e-01
 8.082756e-01
 8.633997e-01
 9.094853e-01
 9.384794e-01
 9.533039e-01
 9.562364e-01
 9.458429e-01
 9.110010e-01
 8.099181e-01
 5.686694e-01
-6.421878e-02
-6.100658e-01
-8.738268e-01
-9.374231e-01
-9.461936e-01
-9.135739e-01
-7.792440e-01
-3.650930e-01
 4.838519e-01
 8.190306e-01
 9.288917e-01
 9.641245e-01
 9.765807e-01
 9.809283e-01
 9.807294e-01
 9.753387e-01
 9.603874e-01
 9.272864e-01
 8.587052e-01
 7.449288e-01
 6.004810e-01
 4.878873e-01
 4.923372e-01
 6.119373e-01
 7.534229e-01
 8.603916e-01
 9.181084e-01
 9.413831e-01
 9.411314e-01
 9.128555e-01
 8.169322e-01
 5.608555e-01
-1.616882e-01
-6.831942e-01
-8.965107e-01
-9.543247e-01
-9.603479e-01
-9.261445e-01
-7.784429e-01
-2.673263e-01
 5.931804e-01
 8.842365e-01
 9.615335e-01
 9.816246e-01
 9.873879e-01
 9.890176e-01
 9.883218e-01
 9.833951e-01
 9.674842e-01
 9.245577e-01
 8.158470e-01
 5.939296e-01
 1.760426e-01
-2.538452e-01
-3.519362e-01
-1.708905e-01
 3.044349e-01
 6.535117e-01
 8.350423e-01
 9.146814e-01
 9.368009e-01
 9.228604e-01
 8.491017e-01
 6.201886e-01
-9.895926e-02
-6.938175e-01
-8.894242e-01
-9.568502e-01
-9.663371e-01
-9.379025e-01
-8.056388e-01
-3.205696e-01
 5.756385e-01
 8.875015e-01
 9.642865e-01
 9.828692e-01
 9.877070e-01
 9.889423e-01
 9.877300e-01
 9.807307e-01
 9.568697e-01
 8.848596e-01
 6.952433e-01
 2.333374e-01
-4.589773e-01
-7.160876e-01
-7.887571e-01
-7.367712e-01
-5.033539e-01
 1.893252e-01
 6.824503e-01
 8.726014e-01
 9.319461e-01
 9.359889e-01
 8.901969e-01
 7.184787e-01
 1.319090e-01
-6.344687e-01
-8.454442e-01
-9.445085e-01
-9.644490e-01
-9.471114e-01
-8.489130e-01
-4.716352e-01
 4.494664e-01
 8.449108e-01
 9.511242e-01
 9.774276e-01
 9.844052e-01
 9.858789e-01
 9.830091e-01
 9.696449e-01
 9.256515e-01
 7.931838e-01
 4.439522e-01
-3.593021e-01
-7.488997e-01
-8.895274e-01
-9.328404e-01
-9.165357e-01
-7.981950e-01
-4.028173e-01
 4.682924e-01
 8.216144e-01
 9.265608e-01
 9.466231e-01
 9.236780e-01
 8.094069e-01
 4.015079e-01
-4.912690e-01
-7.593741e-01
-9.141158e-01
-9.542383e-01
-9.515962e-01
-8.904603e-01
-6.389648e-01
 1.506494e-01
 7.432218e-01
 9.181414e-01
 9.643664e-01
 9.770337e-01
 9.787695e-01
 9.710664e-01
 9.420857e-01
 8.511469e-01
 6.030826e-01
-9.791222e-02
-6.763604e-01
-8.790769e-01
-9.528729e-01
-9.741937e-01
-9.646880e-01
-8.905998e-01
-5.943615e-01
 2.701953e-01
 7.827328e-01
 9.227861e-01
 9.524561e-01
 9.426224e-01
 8.707865e-01
 5.918267e-01
-2.333712e-01
-6.340942e-01
-8.620562e-01
-9.340405e-01
-9.487627e-01
-9.183503e-01
-7.681790e-01
-2.934759e-01
 5.515746e-01
 8.453129e-01
 9.344329e-01
 9.587869e-01
 9.596580e-01
 9.387040e-01
 8.682582e-01
 6.817251e-01
 1.680903e-01
-5.599372e-01
-8.332575e-01
-9.390084e-01
-9.756428e-01
-9.862132e-01
-9.760795e-01
-9.087448e-01
-6.239367e-01
 2.299606e-01
 7.779873e-01
 9.227611e-01
 9.536419e-01
 9.488728e-01
 8.981237e-01
 6.987379e-01
 9.767443e-02
-4.917706e-01
-7.912336e-01
-9.008357e-01
-9.360247e-01
-9.281621e-01
-8.456632e-01
-5.662302e-01
 1.939491e-01
 7.026171e-01
 8.595707e-01
 9.062270e-01
 9.002842e-01
 8.370650e-01
 6.717195e-01
 2.476928e-01
-4.680964e-01
-7.806827e-01
-9.137544e-01
-9.652768e-01
-9.843345e-01
-9.885090e-01
-9.728846e-01
-8.907736e-01
-5.634054e-01
 3.374974e-01
 8.063667e-01
 9.261436e-01
 9.506816e-01
 9.443022e-01
 8.986826e-01
 7.388747e-01
 2.995288e-01
-3.595207e-01
-7.051702e-01
-8.505824e-01
-9.101062e-01
-9.193507e-01
-8.714194e-01
-6.947298e-01
-2.533508e-01
 4.354185e-01
 6.827109e-01
 7.446125e-01
 6.954859e-01
 5.215217e-01
 7.567609e-02
-4.868294e-01
-7.593404e-01
-8.926556e-01
-9.525190e-01
-9.771436e-01
-9.868256e-01
-9.854231e-01
-9.581111e-01
-8.353958e-01
-4.064324e-01
 5.049751e-01
 8.467656e-01
 9.293127e-01
 9.420714e-01
 9.270726e-01
 8.717327e-01
 7.193904e-01
 3.554126e-01
-2.643552e-01
-6.090340e-01
-7.791534e-01
-8.650427e-01
-8.901141e-01
-8.577172e-01
-7.320135e-01
-4.728848e-01
-1.434697e-02
 3.021992e-01
 3.261888e-01
 1.011437e-01
-3.186649e-01
-6.179453e-01
-7.940021e-01
-8.935043e-01
-9.451496e-01
-9.700256e-01
-9.818697e-01
-9.855582e-01
-9.768450e-01
-9.281872e-01
-7.312800e-01
-9.587470e-02
 6.606148e-01
 8.807535e-01
 9.266037e-01
 9.215824e-01
 8.858817e-01
 8.039484e-01
 6.370611e-01
 3.036245e-01
-2.249034e-01
-5.040633e-01
-6.836652e-01
-7.942910e-01
-8.370335e-01
-8.096103e-01
-7.054725e-01
-5.352040e-01
-3.447221e-01
-2.777049e-01
-3.968602e-01
-5.955143e-01
-7.567263e-01
-8.594567e-01
-9.161651e-01
-9.479212e-01
-9.666631e-01
-9.774333e-01
-9.826334e-01
-9.809572e-01
-9.611625e-01
-8.758201e-01
-5.676944e-01
 2.986234e-01
 7.731136e-01
 8.981340e-01
 9.082793e-01
 8.703821e-01
 7.921078e-01
 6.619819e-01
 4.633761e-01
 1.534929e-01
-2.514293e-01
-4.108553e-01
-5.736877e-01
-7.002074e-01
-7.597715e-01
-7.333562e-01
-6.384945e-01
-5.182827e-01
-4.513746e-01
-5.116771e-01
-6.572357e-01
-7.951535e-01
-8.863059e-01
-9.311611e-01
-9.535654e-01
-9.663521e-01
-9.746390e-01
-9.796331e-01
-9.804238e-01
-9.721444e-01
-9.358374e-01
-7.981974e-01
-3.375085e-01
 5.285363e-01
 8.309999e-01
 8.865031e-01
 8.465723e-01
 7.448141e-01
 5.833081e-01
 3.681159e-01
 1.231857e-01
-9.078806e-02
-3.307177e-01
-3.673690e-01
-4.823995e-01
-6.090211e-01
-6.792081e-01
-6.547531e-01
-5.657845e-01
-4.708679e-01
-4.482899e-01
-5.311595e-01
-6.750109e-01
-8.061521e-01
-8.926325e-01
-9.361927e-01
-9.576835e-01
-9.691190e-01
-9.755562e-01
-9.779177e-01
-9.741406e-01
-9.561285e-01
-8.952639e-01
-6.992522e-01
-7.994732e-02
 6.164192e-01
 8.178444e-01
 8.035074e-01
 6.705871e-01
 4.220278e-01
 6.092623e-02
-2.120156e-01
-3.155375e-01
-3.330587e-01
-4.294164e-01
-3.921467e-01
-4.567371e-01
-5.705705e-01
-6.420697e-01
-6.228498e-01
-5.351892e-01
-4.302225e-01
-3.700823e-01
-3.922337e-01
-5.077502e-01
-6.624600e-01
-7.943297e-01
-8.816890e-01
-9.309233e-01
-9.556942e-01
-9.668928e-01
-9.681635e-01
-9.575402e-01
-9.233005e-01
-8.287878e-01
-5.813713e-01
 7.480297e-02
 5.757731e-01
 6.715528e-01
 5.300521e-01
 1.259014e-01
-3.540542e-01
-5.555782e-01
-6.098925e-01
-5.840000e-01
-5.120781e-01
-5.146729e-01
-4.486360e-01
-4.931192e-01
-5.988104e-01
-6.721035e-01
-6.604264e-01
-5.670400e-01
-4.065302e-01
-1.936624e-01
 1.217814e-02
 5.233809e-02
-1.364769e-01
-4.400479e-01
-6.724962e-01
-8.170702e-01
-8.952958e-01
-9.272849e-01
-9.314357e-01
-9.087482e-01
-8.449550e-01
-7.048898e-01
-4.138074e-01
 1.162019e-01
 3.816641e-01
 2.760535e-01
-2.097370e-01
-5.888802e-01
-7.537207e-01
-8.094551e-01
-7.979293e-01
-7.336697e-01
-6.300956e-01
-5.555869e-01
-4.772027e-01
-5.302824e-01
-6.469342e-01
-7.321900e-01
-7.332009e-01
-6.331611e-01
-3.893248e-01
 9.509952e-02
 4.748154e-01
 6.120624e-01
 5.937582e-01
 4.221436e-01
-2.422161e-03
-4.514649e-01
-6.756671e-01
-7.779446e-01
-8.019023e-01
-7.635516e-01
-6.541597e-01
-4.421234e-01
-9.287492e-02
 1.660508e-01
 6.479760e-02
-3.681155e-01
-6.876711e-01
-8.504061e-01
-9.130509e-01
-9.214725e-01
-8.914106e-01
-8.151369e-01
-6.939476e-01
-5.060784e-01
-4.070880e-01
-4.981198e-01
-6.608216e-01
-7.759812e-01
-7.998211e-01
-7.021663e-01
-3.804930e-01
 3.298961e-01
 7.044347e-01
 8.370305e-01
 8.625044e-01
 8.136563e-01
 6.816685e-01
 4.263126e-01
-9.916288e-03
-3.394531e-01
-4.395802e-01
-3.824418e-01
-1.600798e-01
 1.773970e-01
 3.767345e-01
 3.446007e-01
-8.118539e-02
-5.849532e-01
-8.319262e-01
-9.335658e-01
-9.633158e-01
-9.591206e-01
-9.242072e-01
-8.373410e-01
-6.895488e-01
-2.445322e-01
-8.062333e-02
-3.050790e-01
-6.052457e-01
-7.858163e-01
-8.451265e-01
-7.674312e-01
-4.240174e-01
 4.019188e-01
 7.902095e-01
 9.134256e-01
 9.445838e-01
 9.381521e-01
 8.979585e-01
 8.106376e-01
 6.720214e-01
 5.075853e-01
 4.013973e-01
 4.256523e-01
 5.356745e-01
 6.390869e-01
 6.785547e-01
 5.875421e-01
 1.514217e-01
-5.449899e-01
-8.383932e-01
-9.461573e-01
-9.737475e-01
-9.652101e-01
-9.189992e-01
-7.979630e-01
-5.735389e-01
 3.591802e-01
 4.585074e-01
 1.553436e-01
-4.653898e-01
-7.680977e-01
-8.724086e-01
-8.285061e-01
-5.459837e-01
 2.833938e-01
 7.711432e-01
 9.212495e-01
 9.626193e-01
 9.701208e-01
 9.593525e-01
 9.299945e-01
 8.785651e-01
 8.163826e-01
 7.709231e-01
 7.694591e-01
 8.035161e-01
 8.401454e-01
 8.460900e-01
 7.768255e-01
 5.161694e-01
-2.546867e-01
-7.362072e-01
-9.098422e-01
-9.552234e-01
-9.421314e-01
-8.607487e-01
-6.500881e-01
-1.897596e-01
 7.226651e-01
 7.469494e-01
 5.055728e-01
-2.773555e-01
-7.455174e-01
-8.912145e-01
-8.820707e-01
-7.026829e-01
-1.273427e-01
 6.256372e-01
 8.664284e-01
 9.435363e-01
 9.655632e-01
 9.667912e-01
 9.550051e-01
 9.332219e-01
 9.079463e-01
 8.918575e-01
 8.941962e-01
 9.104983e-01
 9.265849e-01
 9.273336e-01
 8.895711e-01
 7.534606e-01
 3.705824e-01
-4.256783e-01
-7.619238e-01
-8.654416e-01
-8.389310e-01
-6.717318e-01
-2.142523e-01
 4.728161e-01
 8.903305e-01
 8.727110e-01
 6.296779e-01
-1.758789e-01
-7.490604e-01
-9.088242e-01
-9.215500e-01
-8.303453e-01
-5.523297e-01
 1.823334e-01
 6.751408e-01
 8.427432e-01
 9.043122e-01
 9.211766e-01
 9.190297e-01
 9.100096e-01
 9.040806e-01
 9.086616e-01
 9.237953e-01
 9.419707e-01
 9.553032e-01
 9.580905e-01
 9.422041e-01
 8.824590e-01
 7.177366e-01
 3.450096e-01
-2.825079e-01
-5.174618e-01
-4.639754e-01
-5.860611e-02
 5.156903e-01
 7.847794e-01
 9.493450e-01
 8.956544e-01
 6.095228e-01
-2.629049e-01
-7.867736e-01
-9.263121e-01
-9.466269e-01
-9.098202e-01
-7.847535e-01
-5.091556e-01
 7.643324e-02
 4.976787e-01
 6.493558e-01
 7.038640e-01
 7.224371e-01
 7.426100e-01
 7.862319e-01
 8.463717e-01
 9.026239e-01
 9.408437e-01
 9.611790e-01
 9.681144e-01
 9.632420e-01
 9.403658e-01
 8.794497e-01
 7.490996e-01
 5.566344e-01
 3.867689e-01
 4.403968e-01
 6.415661e-01
 8.158934e-01
 9.185178e-01
 9.543082e-01
 8.558508e-01
 4.758752e-01
-4.499950e-01
-8.394722e-01
-9.413576e-01
-9.604262e-01
-9.478193e-01
-9.018838e-01
-8.005229e-01
-6.297327e-01
-3.930964e-01
-1.554417e-01
-1.633005e-02
 5.370910e-02
 1.635919e-01
 3.934944e-01
 6.395474e-01
 8.161331e-01
 9.135071e-01
 9.545980e-01
 9.690202e-01
 9.706632e-01
 9.629655e-01
 9.426795e-01
 9.052460e-01
 8.546473e-01
 8.203137e-01
 8.315157e-01
 8.810693e-01
 9.325738e-01
 9.617987e-01
 9.241942e-01
 7.578718e-01
 1.988403e-01
-6.208850e-01
-8.843232e-01
-9.521573e-01
-9.669924e-01
-9.643147e-01
-9.490847e-01
-9.185635e-01
-8.696679e-01
-8.093363e-01
-7.545015e-01
-7.202134e-01
-6.961496e-01
-6.410358e-01
-4.602985e-01
 1.005280e-01
 6.237765e-01
 8.507110e-01
 9.380335e-01
 9.654630e-01
 9.722904e-01
 9.711883e-01
 9.648185e-01
 9.538936e-01
 9.415858e-01
 9.343689e-01
 9.378250e-01
 9.504078e-01
 9.633363e-01
 9.636175e-01
 8.562687e-01
 5.874133e-01
-2.186059e-01
-7.444715e-01
-9.139434e-01
-9.587904e-01
-9.698509e-01
-9.707369e-01
-9.664862e-01
-9.579775e-01
-9.461902e-01
-9.339289e-01
-9.249210e-01
-9.204961e-01
-9.158603e-01
-8.945045e-01
-8.093852e-01
-5.349852e-01
 2.623812e-01
 7.468961e-01
 9.135609e-01
 9.596395e-01
 9.716089e-01
 9.737696e-01
 9.722023e-01
 9.688365e-01
 9.652480e-01
 9.630258e-01
 9.631257e-01
 9.642112e-01
 9.609347e-01
 9.392590e-01
 7.410356e-01
 3.095560e-01
-5.010266e-01
-8.227213e-01
-9.313242e-01
-9.622158e-01
-9.707764e-01
-9.728780e-01
-9.724742e-01
-9.707576e-01
-9.685164e-01
-9.667514e-01
-9.663640e-01
-9.672261e-01
-9.671979e-01
-9.590724e-01
-9.180885e-01
-7.508149e-01
-1.846235e-01
 6.284922e-01
 8.884521e-01
 9.538797e-01
 9.702423e-01
 9.742889e-01
 9.745697e-01
 9.733458e-01
 9.714217e-01
 9.689534e-01
 9.653089e-01
 9.579078e-01
 9.393255e-01
 8.866850e-01
 5.643373e-01
-9.525228e-02
-6.535955e-01
-8.658071e-01
-9.397124e-01
-9.627288e-01
-9.699128e-01
-9.723992e-01
-9.733196e-01
-9.736248e-01
-9.737441e-01
-9.740528e-01
-9.748548e-01
-9.759943e-01
-9.762257e-01
-9.707524e-01
-9.401393e-01
-8.073946e-01
-3.305089e-01
 5.620970e-01
 8.751109e-01
 9.504719e-01
 9.691670e-01
 9.741981e-01
 9.752007e-01
 9.744180e-01
 9.721342e-01
 9.675115e-01
 9.583814e-01
 9.396235e-01
 8.972522e-01
 7.995607e-01
 2.929938e-01
-4.023609e-01
-7.388088e-01
-8.867812e-01
-9.406207e-01
-9.590188e-01
-9.650782e-01
-9.670462e-01
-9.675443e-01
-9.674182e-01
-9.669445e-01
-9.663251e-01
-9.657313e-01
-9.649551e-01
-9.626026e-01
-9.529023e-01
-9.131534e-01
-7.580187e-01
-2.268352e-01
 6.026753e-01
 8.796043e-01
 9.503874e-01
 9.688160e-01
 9.740727e-01
 9.752081e-01
 9.741333e-01
 9.704981e-01
 9.622680e-01
 9.449962e-01
 9.082750e-01
 8.295313e-01
 6.659913e-01
-9.739160e-02
-5.752567e-01
-7.913016e-01
-8.943609e-01
-9.334348e-01
-9.465046e-01
-9.485519e-01
-9.455144e-01
-9.397127e-01
-9.321604e-01
-9.238733e-01
-9.159925e-01
-9.095526e-01
-9.042263e-01
-8.962777e-01
-8.734847e-01
-8.017735e-01
-5.734228e-01
 1.375667e-01
 6.985287e-01
 8.961771e-01
 9.526755e-01
 9.690615e-01
 9.740393e-01
 9.749347e-01
 9.731042e-01
 9.673417e-01
 9.539923e-01
 9.248499e-01
 8.601264e-01
 7.293596e-01
 4.681824e-01
-4.118349e-01
-6.911215e-01
-8.295315e-01
-8.946078e-01
-9.163761e-01
-9.158047e-01
-8.998763e-01
-8.708253e-01
-8.304076e-01
-7.816173e-01
-7.301650e-01
-6.861444e-01
-6.600126e-01
-6.532671e-01
-6.505553e-01
-6.207454e-01
-5.037502e-01
-1.105764e-01
 4.956640e-01
 7.879739e-01
 9.125162e-01
 9.547905e-01
 9.690521e-01
 9.737050e-01
 9.742550e-01
 9.713859e-01
 9.629021e-01
 9.429860e-01
 8.970314e-01
 7.946945e-01
 5.905368e-01
 1.599751e-01
-6.044828e-01
-7.807789e-01
-8.633951e-01
-8.930873e-01
-8.872108e-01
-8.473846e-01
-7.687231e-01
-6.435230e-01
-4.735039e-01
-2.649221e-01
-5.458626e-02
 9.449277e-02
 1.603282e-01
 1.573423e-01
 1.219015e-01
 1.203723e-01
 2.371868e-01
 4.708192e-01
 6.903138e-01
 8.393314e-01
 9.183374e-01
 9.521961e-01
 9.663375e-01
 9.716729e-01
 9.723736e-01
 9.686717e-01
 9.574189e-01
 9.301528e-01
 8.629678e-01
 7.144542e-01
 4.036150e-01
-2.169512e-01
-7.338834e-01
-8.514515e-01
-8.953923e-01
-8.949123e-01
-8.476119e-01
-7.268553e-01
-4.812644e-01
-1.421759e-02
 4.104376e-01
 6.018852e-01
 7.002064e-01
 7.510095e-01
 7.687968e-01
 7.594573e-01
 7.312908e-01
 6.980064e-01
 6.811465e-01
 7.068361e-01
 7.702865e-01
 8.431080e-01
 8.993588e-01
 9.343947e-01
 9.541764e-01
 9.640227e-01
 9.672362e-01
 9.641947e-01
 9.514634e-01
 9.180311e-01
 8.296650e-01
 6.314179e-01
 1.618022e-01
-4.663376e-01
-9.321997e-01
-9.589133e-01
-9.632516e-01
-9.501916e-01
-9.027608e-01
-7.597152e-01
-4.166644e-01
 3.038865e-01
 6.732764e-01
 8.240756e-01
 8.969381e-01
 9.322720e-01
 9.485986e-01
 9.542740e-01
 9.529080e-01
 9.464409e-01
 9.362095e-01
 9.231556e-01
 9.088363e-01
 8.965028e-01
 8.901862e-01
 8.920733e-01
 9.001218e-01
 9.083529e-01
 9.100867e-01
 8.971657e-01
 8.523496e-01
 7.372908e-01
 4.699426e-01
-1.888173e-01
-6.531992e-01
-8.500081e-01
-9.430195e-01
-9.660435e-01
-9.663447e-01
-9.447187e-01
-8.645914e-01
-5.979416e-01
 1.569381e-01
 7.090562e-01
 8.826536e-01
 9.439798e-01
 9.670631e-01
 9.771644e-01
 9.813788e-01
 9.815726e-01
 9.774612e-01
 9.665315e-01
 9.439372e-01
 9.015873e-01
 8.339091e-01
 7.473987e-01
 6.732319e-01
 6.587129e-01
 7.069892e-01
 7.787171e-01
 8.330227e-01
 8.560016e-01
 8.359649e-01
 7.436915e-01
 5.037935e-01
-1.502486e-01
-6.559701e-01
-8.635202e-01
-9.377938e-01
-9.654880e-01
-9.654525e-01
-9.381301e-01
-8.272279e-01
-4.273948e-01
 4.755284e-01
 8.444351e-01
 9.463400e-01
 9.740339e-01
 9.830486e-01
 9.866178e-01
 9.879369e-01
 9.867975e-01
 9.807350e-01
 9.630990e-01
 9.185245e-01
 8.163922e-01
 6.223911e-01
 3.103012e-01
-2.345148e-02
-9.293599e-02
 1.264427e-01
 4.544089e-01
 6.790840e-01
 7.975495e-01
 8.328615e-01
 7.887267e-01
 6.241883e-01
 1.174376e-01
-5.661081e-01
-8.372434e-01
-9.051425e-01
-9.524189e-01
-9.587673e-01
-9.324682e-01
-8.118343e-01
-3.570660e-01
 5.436521e-01
 8.751449e-01
 9.575237e-01
 9.784918e-01
 9.846530e-01
 9.870940e-01
 9.877640e-01
 9.853048e-01
 9.746609e-01
 9.419602e-01
 8.489150e-01
 6.227499e-01
 8.421607e-02
-5.023249e-01
-6.993526e-01
-7.284956e-01
-6.189210e-01
-2.453841e-01
 4.222542e-01
 7.308165e-01
 8.431408e-01
 8.494572e-01
 7.632449e-01
 4.839538e-01
-2.870827e-01
-7.380161e-01
-8.124748e-01
-9.162251e-01
-9.426077e-01
-9.284737e-01
-8.302622e-01
-4.536814e-01
 4.467824e-01
 8.356453e-01
 9.434671e-01
 9.721217e-01
 9.810006e-01
 9.843081e-01
 9.844980e-01
 9.789383e-01
 9.578788e-01
 8.913446e-01
 7.062307e-01
 2.051923e-01
-5.414303e-01
-8.116211e-01
-9.065481e-01
-9.189092e-01
-8.522821e-01
-6.148368e-01
 9.854318e-02
 6.786905e-01
 8.620850e-01
 9.016437e-01
 8.690737e-01
 7.273923e-01
 2.910958e-01
-5.024846e-01
-6.220882e-01
-8.366308e-01
-9.106626e-01
-9.232474e-01
-8.685373e-01
-6.348708e-01
 9.375533e-02
 7.056695e-01
 8.959761e-01
 9.527016e-01
 9.711987e-01
 9.773636e-01
 9.761835e-01
 9.630596e-01
 9.184711e-01
 7.868028e-01
 4.278845e-01
-3.998747e-01
-7.816188e-01
-9.212137e-01
-9.651428e-01
-9.672137e-01
-9.181043e-01
-7.118221e-01
-5.649582e-02
 6.710565e-01
 8.837389e-01
 9.329125e-01
 9.272991e-01
 8.623770e-01
 6.455873e-01
 2.922852e-02
-2.678718e-01
-7.008843e-01
-8.544339e-01
-9.107232e-01
-9.018973e-01
-7.860395e-01
-4.270902e-01
 3.993346e-01
 7.716995e-01
 9.004158e-01
 9.446142e-01
 9.578663e-01
 9.529327e-01
 9.209638e-01
 8.252596e-01
 5.736733e-01
-1.367680e-01
-6.863228e-01
-8.879928e-01
-9.605330e-01
-9.820390e-01
-9.772894e-01
-9.236925e-01
-6.945644e-01
 3.474097e-02
 7.147080e-01
 9.046451e-01
 9.484442e-01
 9.508879e-01
 9.200783e-01
 8.053779e-01
 4.921679e-01
 2.012000e-01
-5.006458e-01
-7.702551e-01
-8.830987e-01
-9.149013e-01
-8.764937e-01
-7.050860e-01
-2.527976e-01
 4.807158e-01
 7.568532e-01
 8.611443e-01
 8.938215e-01
 8.773365e-01
 8.003291e-01
 6.051810e-01
 7.796480e-02
-5.689310e-01
-8.298922e-01
-9.374683e-01
-9.755039e-01
-9.856040e-01
-9.723034e-01
-8.966469e-01
-5.983888e-01
 2.687948e-01
 7.828896e-01
 9.219890e-01
 9.539138e-01
 9.564826e-01
 9.373020e-01
 8.685627e-01
 6.764409e-01
 4.474514e-01
-2.214200e-01
-6.487080e-01
-8.319089e-01
-9.048867e-01
-9.073441e-01
-8.341681e-01
-6.335079e-01
-1.983740e-01
 3.762480e-01
 5.966564e-01
 6.590559e-01
 6.218122e-01
 4.563457e-01
 1.408804e-02
-5.146165e-01
-7.766687e-01
-9.049109e-01
-9.601258e-01
-9.808098e-01
-9.826350e-01
-9.554972e-01
-8.321987e-01
-4.064128e-01
 5.022098e-01
 8.460123e-01
 9.340745e-01
 9.532391e-01
 9.519866e-01
 9.345269e-01
 8.822301e-01
 7.458395e-01
 5.562635e-01
 1.081750e-01
-4.739864e-01
-7.465627e-01
-8.692031e-01
-9.023327e-01
-8.775623e-01
-7.888423e-01
-6.286587e-01
-4.007159e-01
-1.741307e-01
-7.713444e-02
-1.570075e-01
-3.736403e-01
-6.001425e-01
-7.735162e-01
-8.831951e-01
-9.434032e-01
-9.710566e-01
-9.813748e-01
-9.747184e-01
-9.254468e-01
-7.234644e-01
-6.855439e-02
 6.727383e-01
 8.894975e-01
 9.397021e-01
 9.464372e-01
 9.379809e-01
 9.157820e-01
 8.666601e-01
 7.602034e-01
 6.021272e-01
 3.468008e-01
-1.951533e-01
-6.103930e-01
-8.029371e-01
-8.732710e-01
-8.769129e-01
-8.422684e-01
-7.883112e-01
-7.348134e-01
-7.006656e-01
-6.955903e-01
-7.181153e-01
-7.677987e-01
-8.308493e-01
-8.903835e-01
-9.350365e-01
-9.619850e-01
-9.760580e-01
-9.792626e-01
-9.628576e-01
-8.825700e-01
-5.747220e-01
 3.005539e-01
 7.838419e-01
 9.129116e-01
 9.356962e-01
 9.279662e-01
 9.063822e-01
 8.721730e-01
 8.195481e-01
 7.354403e-01
 6.036945e-01
 4.743764e-01
 1.405666e-01
-4.139614e-01
-7.075266e-01
-8.284142e-01
-8.565695e-01
-8.504466e-01
-8.406022e-01
-8.430822e-01
-8.575129e-01
-8.731633e-01
-8.851449e-01
-8.980280e-01
-9.162314e-01
-9.377915e-01
-9.571103e-01
-9.707270e-01
-9.776679e-01
-9.753153e-01
-9.488039e-01
-8.351577e-01
-4.193522e-01
 4.860019e-01
 8.358323e-01
 9.118656e-01
 9.093404e-01
 8.769905e-01
 8.297266e-01
 7.769042e-01
 7.249105e-01
 6.716930e-01
 5.673068e-01
 5.232339e-01
 3.348163e-01
-1.853124e-01
-6.042118e-01
-7.825598e-01
-8.342756e-01
-8.411545e-01
-8.424104e-01
-8.537116e-01
-8.735800e-01
-8.935595e-01
-9.094103e-01
-9.234056e-01
-9.379962e-01
-9.528584e-01
-9.654801e-01
-9.739199e-01
-9.766368e-01
-9.692601e-01
-9.338213e-01
-7.990482e-01
-3.423264e-01
 5.111024e-01
 8.101966e-01
 8.536741e-01
 8.106939e-01
 7.324096e-01
 6.488127e-01
 5.891580e-01
 5.651224e-01
 5.668316e-01
 4.985149e-01
 5.126011e-01
 3.892045e-01
-5.646937e-02
-5.413445e-01
-7.568967e-01
-8.234938e-01
-8.271948e-01
-8.099573e-01
-7.929258e-01
-7.899361e-01
-8.096127e-01
-8.468765e-01
-8.891780e-01
-9.243578e-01
-9.491615e-01
-9.644096e-01
-9.717290e-01
-9.711889e-01
-9.581142e-01
-9.149636e-01
-7.799668e-01
-4.083347e-01
 3.226217e-01
 6.124891e-01
 6.113954e-01
 4.829101e-01
 3.076931e-01
 1.806259e-01
 1.824640e-01
 2.878925e-01
 4.125260e-01
 4.102696e-01
 4.683098e-01
 3.605115e-01
-7.213371e-02
-5.430049e-01
-7.594556e-01
-8.254753e-01
-8.039198e-01
-7.248950e-01
-6.017284e-01
-4.849121e-01
-4.605946e-01
-5.713269e-01
-7.224112e-01
-8.422199e-01
-9.120094e-01
-9.446129e-01
-9.564018e-01
-9.529308e-01
-9.316399e-01
-8.782920e-01
-7.577459e-01
-5.244433e-01
-1.869469e-01
-8.941711e-04
-1.440758e-01
-3.748584e-01
-5.007793e-01
-5.108525e-01
-3.977355e-01
-1.349322e-01
 2.083404e-01
 3.468766e-01
 4.386679e-01
 3.178017e-01
-1.366319e-01
-5.726972e-01
-7.737509e-01
-8.270881e-01
-7.536245e-01
-5.375142e-01
-1.014787e-01
 3.190393e-01
 4.112949e-01
 2.559459e-01
-1.927982e-01
-5.747165e-01
-7.740555e-01
-8.697928e-01
-9.021268e-01
-8.963404e-01
-8.584276e-01
-7.863796e-01
-6.808245e-01
-5.800296e-01
-5.475509e-01
-6.156609e-01
-7.182473e-01
-7.956671e-01
-8.233974e-01
-7.914465e-01
-6.761674e-01
-4.343735e-01
 5.443255e-03
 3.879847e-01
 4.895021e-01
 3.519209e-01
-1.365898e-01
-5.822810e-01
-7.775119e-01
-8.135679e-01
-6.579146e-01
-1.816904e-01
 5.165878e-01
 7.556220e-01
 8.180079e-01
 7.704207e-01
 5.998632e-01
 1.843970e-01
-3.918022e-01
-6.471443e-01
-7.369548e-01
-7.362370e-01
-6.716747e-01
-5.609859e-01
-4.587953e-01
-4.803331e-01
-6.306026e-01
-7.854226e-01
-8.861236e-01
-9.300897e-01
-9.371523e-01
-9.043994e-01
-7.968527e-01
-5.556359e-01
-5.646686e-02
 5.520385e-01
 6.311832e-01
 4.882957e-01
-1.583937e-02
-5.558877e-01
-7.657900e-01
-7.851175e-01
-5.410572e-01
 2.250114e-01
 7.358723e-01
 8.941678e-01
 9.354230e-01
 9.269732e-01
 8.635187e-01
 7.105274e-01
 4.113522e-01
-6.799376e-02
-3.346776e-01
-3.478196e-01
-1.915681e-01
 5.425515e-02
 1.687456e-01
-3.919021e-02
-4.755517e-01
-7.580331e-01
-9.030420e-01
-9.566613e-01
-9.656135e-01
-9.360775e-01
-8.248815e-01
-5.420824e-01
 1.170988e-01
 7.349330e-01
 7.773701e-01
 6.367928e-01
 1.665000e-01
-5.166443e-01
-7.579047e-01
-7.707272e-01
-4.873385e-01
 3.375245e-01
 7.852755e-01
 9.246970e-01
 9.635639e-01
 9.671510e-01
 9.442806e-01
 8.789016e-01
 7.502547e-01
 5.648930e-01
 4.011615e-01
 3.915552e-01
 5.076980e-01
 6.187570e-01
 6.518466e-01
 5.406223e-01
 7.985108e-02
-5.543860e-01
-8.258174e-01
-9.319488e-01
-9.549543e-01
-9.211905e-01
-7.701854e-01
-3.507172e-01
 4.438829e-01
 8.677164e-01
 8.779362e-01
 7.313389e-01
 2.614305e-01
-5.212755e-01
-7.810448e-01
-7.968512e-01
-5.697972e-01
 1.734051e-01
 7.194910e-01
 9.003869e-01
 9.566174e-01
 9.695310e-01
 9.592122e-01
 9.231952e-01
 8.504071e-01
 7.536038e-01
 6.858235e-01
 7.006593e-01
 7.726762e-01
 8.365111e-01
 8.578613e-01
 8.060056e-01
 6.112321e-01
 4.813553e-02
-5.850276e-01
-8.139638e-01
-8.804699e-01
-8.250217e-01
-5.715099e-01
 1.782636e-01
 7.035524e-01
 9.352916e-01
 9.148457e-01
 7.371840e-01
 1.745155e-01
-6.042926e-01
-8.331628e-01
-8.534499e-01
-7.154299e-01
-2.853276e-01
 4.860681e-01
 7.883296e-01
 8.970280e-01
 9.291241e-01
 9.229558e-01
 8.864688e-01
 8.226538e-01
 7.575859e-01
 7.447769e-01
 7.959929e-01
 8.679187e-01
 9.170173e-01
 9.350684e-01
 9.179221e-01
 8.354724e-01
 6.232454e-01
 1.239042e-01
-4.406399e-01
-5.985713e-01
-4.999446e-01
 3.472553e-02
 6.181976e-01
 8.568366e-01
 9.504398e-01
 8.940543e-01
 6.407078e-01
-1.431785e-01
-7.269211e-01
-8.893143e-01
-9.076503e-01
-8.375842e-01
-6.375642e-01
-1.607187e-01
 4.497391e-01
 6.771735e-01
 7.486938e-01
 7.378115e-01
 6.726956e-01
 5.879131e-01
 5.594169e-01
 6.419733e-01
 7.724632e-01
 8.788568e-01
 9.359884e-01
 9.578726e-01
 9.561932e-01
 9.276670e-01
 8.462154e-01
 6.817473e-01
 4.305947e-01
 2.239445e-01
 3.446618e-01
 6.208829e-01
 8.230202e-01
 9.271136e-01
 9.219106e-01
 8.004940e-01
 3.887981e-01
-4.888843e-01
-8.310257e-01
-9.290206e-01
-9.424144e-01
-9.124550e-01
-8.273907e-01
-6.587771e-01
-3.820490e-01
-2.971863e-02
 1.448290e-01
 1.081103e-01
-5.191951e-02
-1.815505e-01
-1.013180e-01
 2.824901e-01
 6.372267e-01
 8.369953e-01
 9.286871e-01
 9.610388e-01
 9.681594e-01
 9.597943e-01
 9.331865e-01
 8.797496e-01
 8.054551e-01
 7.522468e-01
 7.699385e-01
 8.399051e-01
 9.071319e-01
 9.389446e-01
 8.357132e-01
 5.997534e-01
-1.338394e-01
-7.037426e-01
-8.973793e-01
-9.509475e-01
-9.603694e-01
-9.494541e-01
-9.184959e-01
-8.608212e-01
-7.799426e-01
-6.980927e-01
-6.565864e-01
-6.745110e-01
-7.188484e-01
-7.376020e-01
-6.687012e-01
-3.813351e-01
 3.467062e-01
 7.468912e-01
 9.053658e-01
 9.563185e-01
 9.705041e-01
 9.706760e-01
 9.619027e-01
 9.444528e-01
 9.212362e-01
 9.020470e-01
 8.977067e-01
 9.079481e-01
 9.187996e-01
 9.075086e-01
 6.674880e-01
 1.968986e-01
-5.375705e-01
-8.273406e-01
-9.310407e-01
-9.615246e-01
-9.682549e-01
-9.653013e-01
-9.552010e-01
-9.386692e-01
-9.188585e-01
-9.032693e-01
-8.995602e-01
-9.079020e-01
-9.193400e-01
-9.181599e-01
-8.725365e-01
-6.990118e-01
-1.273319e-01
 6.193319e-01
 8.740317e-01
 9.489726e-01
 9.695015e-01
 9.736514e-01
 9.710179e-01
 9.636103e-01
 9.523569e-01
 9.390383e-01
 9.259000e-01
 9.120682e-01
 8.874114e-01
 8.268708e-01
 3.608878e-01
-3.473757e-01
-7.306774e-01
-8.916400e-01
-9.481273e-01
-9.662542e-01
-9.713792e-01
-9.715755e-01
-9.690188e-01
-9.647526e-01
-9.603626e-01
-9.580516e-01
-9.592414e-01
-9.632788e-01
-9.672101e-01
-9.646259e-01
-9.364954e-01
-8.135606e-01
-3.843963e-01
 5.099724e-01
 8.514289e-01
 9.435754e-01
 9.678462e-01
 9.738217e-01
 9.732805e-01
 9.684884e-01
 9.591397e-01
 9.440551e-01
 9.209577e-01
 8.832724e-01
 8.160341e-01
 6.816674e-01
-1.475965e-01
-6.179569e-01
-8.309634e-01
-9.236503e-01
-9.567678e-01
-9.682272e-01
-9.722098e-01
-9.734842e-01
-9.734721e-01
-9.727521e-01
-9.718360e-01
-9.712874e-01
-9.714898e-01
-9.722065e-01
-9.721281e-01
-9.664983e-01
-9.373655e-01
-8.151187e-01
-3.822626e-01
 5.132925e-01
 8.541428e-01
 9.433895e-01
 9.670179e-01
 9.731771e-01
 9.729765e-01
 9.680653e-01
 9.569316e-01
 9.358702e-01
 8.968888e-01
 8.251451e-01
 6.959632e-01
 4.400884e-01
-5.014426e-01
-7.578038e-01
-8.858879e-01
-9.401126e-01
-9.606949e-01
-9.681660e-01
-9.709202e-01
-9.718263e-01
-9.716381e-01
-9.703962e-01
-9.678795e-01
-9.639562e-01
-9.587695e-01
-9.524323e-01
-9.438542e-01
-9.261824e-01
-8.713256e-01
-6.873775e-01
-8.649082e-02
 6.385633e-01
 8.805606e-01
 9.484782e-01
 9.674792e-01
 9.724792e-01
 9.715178e-01
 9.649640e-01
 9.497189e-01
 9.183969e-01
 8.540984e-01
 7.337227e-01
 5.084054e-01
 3.111937e-02
-6.827059e-01
-8.396923e-01
-9.168280e-01
-9.487351e-01
-9.611879e-01
-9.648853e-01
-9.646374e-01
-9.617658e-01
-9.560426e-01
-9.464415e-01
-9.318076e-01
-9.113645e-01
-8.857010e-01
-8.559436e-01
-8.209873e-01
-7.671804e-01
-6.460083e-01
-2.915502e-01
 4.308030e-01
 7.770506e-01
 9.134960e-01
 9.558575e-01
 9.687581e-01
 9.717401e-01
 9.691498e-01
 9.597257e-01
 9.381714e-01
 8.909966e-01
 7.919728e-01
 6.016826e-01
 2.114015e-01
-3.735856e-01
-7.928922e-01
-8.909353e-01
-9.352963e-01
-9.529537e-01
-9.577205e-01
-9.543782e-01
-9.439413e-01
-9.248543e-01
-8.937242e-01
-8.453565e-01
-7.738180e-01
-6.827763e-01
-5.839995e-01
-4.929139e-01
-4.036209e-01
-2.695309e-01
 2.801764e-02
 4.529148e-01
 7.239103e-01
 8.744099e-01
 9.382177e-01
 9.619055e-01
 9.695008e-01
 9.701695e-01
 9.652822e-01
 9.519928e-01
 9.219842e-01
 8.532071e-01
 7.103980e-01
 4.193380e-01
-1.788692e-01
-5.965599e-01
-8.626070e-01
-9.238367e-01
-9.478389e-01
-9.543488e-01
-9.486382e-01
-9.282563e-01
-8.838563e-01
-8.030791e-01
-6.743844e-01
-4.900366e-01
-2.276162e-01
 8.452202e-02
 3.096835e-01
 4.304478e-01
 5.027997e-01
 5.730348e-01
 6.664338e-01
 7.728456e-01
 8.625583e-01
 9.207313e-01
 9.499457e-01
 9.627146e-01
 9.667765e-01
 9.653858e-01
 9.580738e-01
 9.405865e-01
 9.009120e-01
 8.082383e-01
 6.153116e-01
 1.773577e-01
-4.405218e-01
-7.268225e-01
-9.068314e-01
-9.451806e-01
-9.569799e-01
-9.534535e-01
-9.311281e-01
-8.695574e-01
-7.331520e-01
-4.754390e-01
-1.006899e-03
 4.164459e-01
 6.240313e-01
 7.413090e-01
 8.086135e-01
 8.405361e-01
 8.526226e-01
 8.604036e-01
 8.733390e-01
 8.925613e-01
 9.134362e-01
 9.308211e-01
 9.429642e-01
 9.499988e-01
 9.526467e-01
 9.510206e-01
 9.431315e-01
 9.234251e-01
 8.762605e-01
 7.646056e-01
 5.226232e-01
-6.400077e-02
-5.839937e-01
-8.059664e-01
-9.631990e-01
-9.699243e-01
-9.672985e-01
-9.554833e-01
-9.218979e-01
-8.262646e-01
-6.032045e-01
-9.290082e-02
 4.908360e-01
 7.353676e-01
 8.579216e-01
 9.216055e-01
 9.514517e-01
 9.650683e-01
 9.703306e-01
 9.711464e-01
 9.688890e-01
 9.628993e-01
 9.508119e-01
 9.301798e-01
 8.993518e-01
 8.603336e-01
 8.201052e-01
 7.816718e-01
 7.363573e-01
 6.596632e-01
 5.103640e-01
 1.677361e-01
-3.893075e-01
-7.065924e-01
-8.664495e-01
-9.377610e-01
-9.623063e-01
-9.680393e-01
-9.616321e-01
-9.387880e-01
-8.676986e-01
-6.543456e-01
-7.536279e-02
 5.923939e-01
 8.211449e-01
 9.131403e-01
 9.522151e-01
 9.706829e-01
 9.798305e-01
 9.837146e-01
 9.840554e-01
 9.806546e-01
 9.711159e-01
 9.496519e-01
 9.061694e-01
 8.247654e-01
 7.082814e-01
 5.868635e-01
 5.181447e-01
 5.167755e-01
 5.363822e-01
 5.268101e-01
 4.397355e-01
 1.738662e-01
-3.370413e-01
-6.764099e-01
-8.537352e-01
-9.345900e-01
-9.472160e-01
-9.571038e-01
-9.481330e-01
-9.117321e-01
-7.879590e-01
-3.929391e-01
 4.622476e-01
 8.162331e-01
 9.283659e-01
 9.627714e-01
 9.762144e-01
 9.827499e-01
 9.863106e-01
 9.876389e-01
 9.859651e-01
 9.782804e-01