# vtk DataFile Version 2.0
Generated by vtk_extract.c
ASCII
DATASET STRUCTURED_POINTS
DIMENSIONS 32 32 32
ORIGIN 0 0 0
SPACING 1 1 1
POINT_DATA 32768
VECTORS vel float
-1.433729e-04  9.129210e-05  4.866202e-04
-1.544351e-04  1.043418e-04  4.716756e-04
-1.626945e-04  9.364005e-05  4.417081e-04
-1.726262e-04  6.517206e-05  4.023375e-04
-1.884724e-04  6.799015e-05  3.558085e-04
-2.016087e-04  1.946872e-04  2.811384e-04
-2.529844e-04  1.845134e-04  3.021645e-04
-3.342301e-04  1.033559e-04  2.447899e-04
-3.758571e-04  1.106917e-04  1.591766e-04
-3.839664e-04  3.085384e-05  1.230699e-04
-3.860739e-04 -4.405792e-05  7.667554e-05
-3.804321e-04 -1.135721e-04  1.228232e-05
-3.705735e-04 -1.714452e-04 -7.192916e-05
-3.593261e-04 -2.253459e-04 -1.388423e-04
-3.427023e-04 -2.671522e-04 -2.171468e-04
-3.138676e-04 -2.942449e-04 -2.971953e-04
-3.063205e-04 -3.393942e-04 -3.380993e-04
-2.849186e-04 -3.433537e-04 -3.623366e-04
-2.739814e-04 -3.002386e-04 -4.115593e-04
-2.773570e-04 -3.411474e-04 -5.527366e-04
-2.564669e-04 -3.377654e-04 -5.852337e-04
-2.271758e-04 -2.465130e-04 -5.361151e-04
-2.091707e-04 -1.796563e-04 -4.925692e-04
-2.015201e-04 -1.373916e-04 -4.608639e-04
-1.819025e-04 -1.306789e-04 -3.752489e-04
-1.564668e-04 -1.148215e-04 -2.979619e-04
-1.210089e-04 -9.520355e-05 -2.067796e-04
-9.868887e-05 -6.548439e-05 -9.288999e-05
-7.076194e-05 -3.622623e-05  1.839757e-05
-2.137542e-05  3.689135e-05  1.955761e-04
-5.658079e-05  9.086518e-05  3.241728e-04
-1.318393e-04  7.224607e-05  4.103221e-04
-1.144252e-04  8.126454e-05  4.848358e-04
-1.368041e-04  9.904446e-05  4.932731e-04
-1.571675e-04  8.648403e-05  4.855440e-04
-1.826010e-04  5.328861e-05  4.254288e-04
-2.407136e-04  4.226966e-05  3.325302e-04
-2.595555e-04  1.999855e-04  2.912629e-04
-2.275855e-04  1.145179e-04  3.564531e-04
-2.808612e-04  7.742740e-05  2.035554e-04
-3.354085e-04  4.937664e-05  1.702255e-04
-3.473432e-04 -1.559400e-06  1.379174e-04
-3.623431e-04 -7.264469e-05  1.026553e-04
-3.709733e-04 -1.400480e-04  4.484400e-05
-3.686343e-04 -1.990318e-04 -2.957665e-05
-3.471276e-04 -2.547296e-04 -9.927766e-05
-3.247759e-04 -2.942071e-04 -1.677049e-04
-2.985386e-04 -3.301632e-04 -2.585488e-04
-2.790822e-04 -3.290374e-04 -3.232951e-04
-2.487295e-04 -3.192662e-04 -3.463414e-04
-1.866501e-04 -2.779519e-04 -3.913867e-04
-1.910205e-04 -3.271218e-04 -4.968984e-04
-2.526874e-04 -3.239027e-04 -5.530615e-04
-2.816455e-04 -2.930596e-04 -5.057509e-04
-2.368751e-04 -2.309369e-04 -4.465381e-04
-2.014176e-04 -1.343520e-04 -4.027469e-04
-1.935297e-04 -1.286156e-04 -3.165985e-04
-1.664027e-04 -1.336276e-04 -2.531755e-04
-1.386085e-04 -9.817873e-05 -1.718303e-04
-1.160357e-04 -6.585779e-05 -5.745724e-05
-9.643416e-05 -5.308534e-05  5.243184e-05
-5.647582e-05 -4.461305e-05  2.224452e-04
-5.043720e-05  5.908764e-05  3.260727e-04
-8.280952e-05  1.023461e-04  3.852972e-04
-1.144201e-04  7.488860e-05  4.738644e-04
-1.401171e-04  9.608519e-05  4.901750e-04
-1.743529e-04  8.451807e-05  4.719483e-04
-2.149929e-04  6.193550e-05  4.205759e-04
-3.002608e-04  3.445265e-05  3.359488e-04
-2.800069e-04  1.145756e-04  2.895064e-04
-2.349616e-04  9.168624e-05  3.307607e-04
-2.771120e-04  6.592025e-05  2.143122e-04
-3.074227e-04  3.483589e-05  1.840620e-04
-3.316503e-04 -2.603884e-05  1.567174e-04
-3.457409e-04 -9.087482e-05  1.148519e-04
-3.516133e-04 -1.622673e-04  5.646312e-05
-3.424136e-04 -2.219631e-04 -1.439531e-05
-3.229717e-04 -2.777217e-04 -8.044596e-05
-2.963953e-04 -3.214324e-04 -1.505757e-04
-2.684927e-04 -3.370615e-04 -2.231480e-04
-2.624593e-04 -3.482826e-04 -2.821465e-04
-1.825910e-04 -3.099025e-04 -3.082958e-04
-9.892787e-05 -3.514706e-04 -3.260341e-04
-1.413098e-04 -3.093577e-04 -3.467519e-04
-2.166130e-04 -2.266482e-04 -3.112241e-04
-2.858262e-04 -2.669065e-04 -3.415633e-04
-3.104177e-04 -2.790319e-04 -3.464724e-04
-2.659978e-04 -1.466345e-04 -3.232963e-04
-2.280214e-04 -1.414905e-04 -2.186969e-04
-2.124067e-04 -1.396867e-04 -1.863215e-04
-1.791136e-04 -9.575313e-05 -1.295785e-04
-1.399960e-04 -5.761457e-05 -2.164177e-05
-1.329310e-04 -4.824959e-05  8.860397e-05
-1.121926e-04 -7.228815e-05  2.666888e-04
-4.090613e-05  3.275440e-05  2.571069e-04
-5.743713e-05  1.127702e-04  3.180371e-04
-1.227954e-04  7.680206e-05  4.582258e-04
-1.497048e-04  9.396168e-05  4.782814e-04
-1.838648e-04  9.587224e-05  4.611716e-04
-2.402684e-04  9.217630e-05  4.298953e-04
-3.081629e-04  3.716251e-05  3.720868e-04
-2.993497e-04  2.647849e-05  3.019530e-04
-2.465658e-04  1.285077e-04  2.987016e-04
-2.609924e-04  5.627769e-05  2.431459e-04
-2.977022e-04  1.746212e-05  2.277110e-04
-3.215708e-04 -3.950324e-05  1.889648e-04
-3.322240e-04 -1.125196e-04  1.345934e-04
-3.297398e-04 -1.820130e-04  6.838184e-05
-3.199847e-04 -2.430736e-04 -5.510622e-06
-2.916696e-04 -2.937701e-04 -7.210786e-05
-2.739599e-04 -3.385749e-04 -1.374636e-04
-2.512808e-04 -3.514314e-04 -2.065605e-04
-2.497027e-04 -3.446972e-04 -2.702672e-04
-2.223496e-04 -3.665568e-04 -2.847017e-04
-1.926512e-04 -4.120805e-04 -2.494246e-04
-2.524222e-04 -3.232540e-04 -3.452107e-04
-2.659536e-04 -2.531780e-04 -3.469688e-04
-2.267345e-04 -2.293316e-04 -3.125962e-04
-2.187220e-04 -2.701627e-04 -3.553682e-04
-2.226872e-04 -1.335108e-04 -3.452633e-04
-2.319958e-04 -1.072144e-04 -1.661490e-04
-2.338636e-04 -1.429550e-04 -1.209613e-04
-2.043538e-04 -9.838338e-05 -7.771430e-05
-1.806331e-04 -5.829647e-05  4.147744e-06
-1.619858e-04 -4.788231e-05  1.164472e-04
-1.733813e-04 -7.157180e-05  2.740267e-04
-1.156338e-04 -2.430866e-06  2.748179e-04
-6.750531e-05  1.162320e-04  2.782101e-04
-1.328204e-04  7.984663e-05  4.627952e-04
-1.800708e-04  9.997469e-05  4.757522e-04
-2.192955e-04  1.186892e-04  4.670457e-04
-2.550323e-04  1.198554e-04  4.329982e-04
-3.072599e-04  7.500565e-05  3.752363e-04
-3.259024e-04 -4.246019e-05  3.102771e-04
-2.624784e-04  1.502294e-04  2.770816e-04
-2.445360e-04  6.085172e-05  2.722628e-04
-2.944820e-04  7.510474e-06  2.594028e-04
-3.115465e-04 -5.445770e-05  2.192844e-04
-3.093742e-04 -1.298423e-04  1.583583e-04
-3.019919e-04 -1.982642e-04  7.824143e-05
-2.859072e-04 -2.549753e-04 -3.589277e-06
-2.645289e-04 -3.107516e-04 -6.710871e-05
-2.321226e-04 -3.415768e-04 -1.384739e-04
-2.646250e-04 -3.575285e-04 -2.163763e-04
-2.570611e-04 -3.384181e-04 -2.964289e-04
-1.607329e-04 -4.396093e-04 -1.974015e-04
-2.055446e-04 -3.875492e-04 -2.704531e-04
-2.740518e-04 -3.532553e-04 -3.287884e-04
-2.657841e-04 -3.130631e-04 -3.276723e-04
-2.618982e-04 -2.768981e-04 -2.744813e-04
-3.003823e-04 -2.680336e-04 -2.361853e-04
-2.908059e-04 -1.768098e-04 -3.383784e-04
-2.150809e-04 -3.214591e-05 -9.607382e-05
-2.141610e-04 -1.442184e-04 -5.278907e-05
-2.234262e-04 -9.769430e-05 -2.195420e-05
-1.942493e-04 -6.356471e-05  5.042177e-05
-1.795879e-04 -4.332773e-05  1.337115e-04
-1.905304e-04 -5.745169e-05  2.511206e-04
-1.720865e-04 -5.134241e-05  2.838544e-04
-1.264769e-04  1.043843e-04  3.157884e-04
-1.531445e-04  9.435176e-05  4.767159e-04
-2.132674e-04  1.042118e-04  4.677923e-04
-2.375936e-04  1.262231e-04  4.529844e-04
-2.532868e-04  1.459520e-04  4.184195e-04
-2.759247e-04  1.239095e-04  3.495835e-04
-3.276873e-04 -3.438548e-05  2.863642e-04
-2.994101e-04  9.822915e-05  2.953888e-04
-2.620494e-04  1.054278e-04  3.199383e-04
-2.890024e-04 -1.707433e-07  2.842604e-04
-2.871596e-04 -6.530110e-05  2.446211e-04
-2.799653e-04 -1.399227e-04  1.782919e-04
-2.658791e-04 -1.996588e-04  9.123307e-05
-2.460013e-04 -2.590935e-04 -7.535959e-06
-2.191352e-04 -3.097194e-04 -6.994575e-05
-2.246853e-04 -3.435120e-04 -1.529768e-04
-2.275343e-04 -3.455743e-04 -2.798620e-04
-1.451325e-04 -4.196741e-04 -2.252454e-04
-1.418212e-04 -4.132549e-04 -1.890437e-04
-2.098780e-04 -3.760487e-04 -2.715450e-04
-2.439338e-04 -3.460139e-04 -3.097595e-04
-2.739005e-04 -3.245449e-04 -2.866511e-04
-2.931981e-04 -3.000186e-04 -2.266293e-04
-3.250554e-04 -2.947492e-04 -1.703825e-04
-3.538223e-04 -2.526399e-04 -2.236510e-04
-2.685300e-04 -8.143721e-05 -4.293470e-05
-2.068240e-04 -1.272497e-04 -1.000254e-06
-2.361782e-04 -9.288034e-05  1.470119e-05
-2.202385e-04 -6.115738e-05  6.959813e-05
-1.945535e-04 -4.279723e-05  1.459237e-04
-1.916712e-04 -3.139955e-05  2.213317e-04
-2.089118e-04 -7.420174e-05  2.096962e-04
-1.605754e-04  4.726150e-05  3.318597e-04
-1.722264e-04  1.117928e-04  4.714741e-04
-1.966441e-04  1.053766e-04  4.562840e-04
-2.187384e-04  1.306654e-04  4.360143e-04
-2.321479e-04  1.746873e-04  4.042269e-04
-2.510190e-04  1.613333e-04  3.409993e-04
-3.172062e-04  4.674079e-05  2.714404e-04
-3.292904e-04  2.006219e-05  2.335945e-04
-2.688406e-04  1.327462e-04  3.814055e-04
-2.627588e-04 -5.353096e-07  3.267221e-04
-2.642812e-04 -7.099428e-05  2.694968e-04
-2.454061e-04 -1.335122e-04  2.087104e-04
-2.252884e-04 -1.957548e-04  1.052291e-04
-1.977146e-04 -2.468501e-04  5.034134e-06
-1.752243e-04 -3.154377e-04 -8.812231e-05
-1.744093e-04 -3.480244e-04 -2.179676e-04
-1.436874e-04 -3.987368e-04 -2.746227e-04
-8.933158e-05 -4.222299e-04 -1.613797e-04
-1.144081e-04 -3.718642e-04 -2.316764e-04
-1.862359e-04 -3.571762e-04 -2.712138e-04
-2.240410e-04 -3.329230e-04 -2.909249e-04
-2.598904e-04 -3.160125e-04 -2.701342e-04
-2.959861e-04 -3.094158e-04 -2.105512e-04
-3.256734e-04 -2.958211e-04 -1.499010e-04
-3.741449e-04 -2.411716e-04 -1.835048e-04
-3.130336e-04 -2.071555e-04 -2.115682e-06
-2.263261e-04 -1.314031e-04  1.382626e-05
-2.275399e-04 -6.858496e-05  1.894564e-05
-2.147156e-04 -4.868934e-05  7.668602e-05
-1.934956e-04 -3.138983e-05  1.434592e-04
-1.734838e-04 -1.669809e-05  2.049370e-04
-2.179168e-04 -5.025202e-05  1.788916e-04
-2.192785e-04 -2.203629e-05  2.347674e-04
-2.018346e-04  1.198600e-04  4.227262e-04
-1.856057e-04  1.080650e-04  4.474594e-04
-2.187931e-04  1.494248e-04  4.475636e-04
-2.395879e-04  1.924997e-04  4.144608e-04
-2.530583e-04  1.948686e-04  3.479596e-04
-2.715091e-04  1.161551e-04  2.601082e-04
-3.040129e-04  1.043552e-05  1.734041e-04
-2.394605e-04  8.703500e-05  3.500700e-04
-2.015161e-04  2.240970e-05  3.568402e-04
-2.291759e-04 -6.889713e-05  2.877418e-04
-1.868020e-04 -1.272487e-04  2.248593e-04
-1.486558e-04 -1.683441e-04  1.091612e-04
-1.178360e-04 -2.636668e-04 -2.848218e-05
-9.667587e-05 -3.243520e-04 -1.570986e-04
-1.134837e-04 -3.649203e-04 -2.918628e-04
-5.817084e-05 -3.872335e-04 -1.675004e-04
-4.720518e-05 -3.622018e-04 -1.966898e-04
-1.080185e-04 -3.514766e-04 -2.328202e-04
-1.381085e-04 -3.269343e-04 -2.685253e-04
-1.935284e-04 -3.088360e-04 -2.852267e-04
-2.399776e-04 -2.988786e-04 -2.659205e-04
-2.829249e-04 -2.990073e-04 -2.105642e-04
-3.370291e-04 -2.648372e-04 -1.462064e-04
-3.773983e-04 -2.158169e-04 -1.539411e-04
-3.021854e-04 -3.076551e-04 -9.177585e-07
-2.122730e-04 -1.381641e-04  2.219771e-06
-1.878808e-04 -5.060528e-05  5.905971e-06
-1.604301e-04 -3.024157e-05  6.606738e-05
-1.397045e-04 -1.044998e-05  1.260721e-04
-1.328570e-04  9.327287e-06  1.944626e-04
-1.818637e-04 -2.951374e-05  1.909238e-04
-2.303814e-04 -6.257507e-05  2.417186e-04
-2.062094e-04  7.635820e-05  4.139864e-04
-2.054461e-04  1.316691e-04  4.455282e-04
-2.128173e-04  1.654451e-04  4.765482e-04
-2.353357e-04  2.033715e-04  4.446787e-04
-2.310339e-04  2.162092e-04  3.485157e-04
-2.153500e-04  1.527153e-04  2.373028e-04
-2.222855e-04  4.503447e-05  1.493636e-04
-1.824630e-04  1.929820e-05  2.506946e-04
-1.107438e-04  5.069193e-05  3.525720e-04
-1.196044e-04 -5.550307e-05  3.174847e-04
-1.111316e-04 -1.353663e-04  2.582102e-04
-4.147964e-05 -1.603333e-04  1.360451e-04
-1.364003e-05 -2.036947e-04 -4.595857e-05
-8.256310e-05 -2.460747e-04 -1.853075e-04
-5.273868e-05 -2.990804e-04 -1.194046e-04
 6.255714e-06 -3.318996e-04 -1.568650e-04
-1.504797e-05 -3.376787e-04 -1.736955e-04
-4.729368e-05 -3.215715e-04 -2.274127e-04
-1.015964e-04 -3.059251e-04 -2.490337e-04
-1.458076e-04 -2.746247e-04 -2.715343e-04
-1.959897e-04 -2.706780e-04 -2.587615e-04
-2.480858e-04 -2.667276e-04 -2.115535e-04
-3.237386e-04 -2.086025e-04 -1.439242e-04
-3.450728e-04 -2.307040e-04 -1.353211e-04
-2.462197e-04 -3.611025e-04 -2.414291e-05
-1.595551e-04 -1.256055e-04 -2.273697e-05
-1.202295e-04 -5.357779e-05 -8.338063e-06
-8.319337e-05 -1.176324e-05  4.436930e-05
-7.556047e-05  1.404149e-05  1.106767e-04
-7.858114e-05  4.165345e-05  1.742273e-04
-1.047376e-04 -3.246881e-05  2.106306e-04
-1.644383e-04 -6.065212e-05  3.166323e-04
-1.996775e-04  8.068044e-06  4.426768e-04
-2.363276e-04  1.256798e-04  4.784505e-04
-2.054387e-04  1.551195e-04  5.229889e-04
-1.997837e-04  1.955216e-04  4.865027e-04
-1.843712e-04  2.141265e-04  3.587170e-04
-1.611379e-04  1.638463e-04  2.201136e-04
-1.313160e-04  4.166754e-05  1.221693e-04
-5.572670e-05 -1.614649e-05  2.320480e-04
 6.546193e-06  7.848175e-06  2.844922e-04
 6.142276e-06 -3.724640e-05  3.144556e-04
 7.855244e-06 -1.116602e-04  3.379637e-04
-2.624037e-05 -9.611821e-05  2.035708e-04
-8.749310e-05 -8.288468e-05  5.476104e-05
-1.728203e-05 -1.815125e-04  2.551203e-05
 7.293763e-05 -2.615037e-04 -5.378462e-05
 7.028545e-05 -3.182410e-04 -9.356768e-05
 4.371339e-05 -3.129753e-04 -1.599936e-04
-2.450761e-06 -2.993113e-04 -2.003418e-04
-5.045450e-05 -2.755164e-04 -2.317302e-04
-9.895461e-05 -2.458168e-04 -2.485140e-04
-1.353692e-04 -2.322667e-04 -2.390313e-04
-1.793148e-04 -2.277021e-04 -2.131632e-04
-2.546699e-04 -1.337665e-04 -1.522752e-04
-2.245407e-04 -2.856090e-04 -1.170534e-04
-1.221855e-04 -3.318113e-04 -5.949031e-05
-6.984901e-05 -1.287154e-04 -5.375640e-05
-2.606397e-05 -5.579595e-05 -2.882396e-05
-6.313508e-06 -1.482233e-06  2.921736e-05
 7.383568e-06  4.626729e-05  7.266665e-05
-4.946221e-06  4.320874e-05  1.649053e-04
-1.380135e-05 -8.109747e-06  2.324477e-04
-6.470139e-05 -4.979434e-05  3.862592e-04
-1.645735e-04 -3.738752e-05  4.669103e-04
-2.363403e-04  6.965834e-05  5.177338e-04
-1.950277e-04  1.180270e-04  5.716510e-04
-1.563553e-04  1.537175e-04  5.263511e-04
-1.367288e-04  1.828695e-04  3.635764e-04
-1.009897e-04  1.407310e-04  1.836447e-04
-4.947650e-05  1.651507e-05  9.800559e-05
 7.901432e-06 -2.662173e-05  1.962408e-04
 1.967175e-05 -8.224214e-05  2.597281e-04
-2.219653e-05 -5.756846e-05  2.958309e-04
-2.875955e-05 -6.638640e-05  2.778057e-04
 1.777730e-05 -5.057555e-05  1.697299e-04
 1.054804e-04 -9.904660e-05  1.233956e-04
 1.536158e-04 -1.929290e-04  8.160998e-05
 1.497064e-04 -2.759492e-04  1.061261e-05
 1.324375e-04 -2.960252e-04 -6.438593e-05
 8.797611e-05 -3.013871e-04 -1.146743e-04
 4.446390e-05 -2.798893e-04 -1.727133e-04
 4.627274e-06 -2.530869e-04 -2.030961e-04
-3.670675e-05 -2.166346e-04 -2.263013e-04
-7.302984e-05 -1.980032e-04 -2.190379e-04
-1.097485e-04 -1.832288e-04 -2.062968e-04
-1.432101e-04 -9.391315e-05 -1.669091e-04
-5.831497e-05 -3.308015e-04 -1.002794e-04
 3.967802e-05 -2.690840e-04 -9.863875e-05
 5.030027e-05 -1.357714e-04 -8.937945e-05
 6.123863e-05 -6.002540e-05 -4.663237e-05
 8.279532e-05  1.688284e-05 -4.047199e-06
 8.137234e-05  4.672672e-05  6.780785e-05
 1.001149e-04  5.190677e-05  1.486098e-04
 1.065588e-04  1.384534e-05  2.811239e-04
-4.207501e-06 -5.268064e-05  3.802528e-04
-8.536897e-05 -8.599920e-05  4.661173e-04
-1.758805e-04 -1.460236e-05  5.512133e-04
-1.734131e-04  5.391730e-05  5.892011e-04
-1.288845e-04  6.837643e-05  5.547151e-04
-8.930505e-05  1.078656e-04  3.561188e-04
-4.002907e-05  6.194834e-05  1.485578e-04
 2.574109e-05  1.712463e-06  7.563120e-05
 6.168380e-05 -4.612158e-05  1.660260e-04
-1.085857e-05 -1.092354e-04  2.566446e-04
-5.788823e-05 -1.039128e-04  3.545165e-04
 4.826485e-05 -8.660309e-05  3.480858e-04
 1.567135e-04 -1.146660e-04  2.845523e-04
 1.788006e-04 -1.646437e-04  2.170720e-04
 1.860470e-04 -2.058318e-04  1.705552e-04
 1.645429e-04 -2.601204e-04  8.705520e-05
 1.337015e-04 -2.956981e-04  7.136800e-06
 1.117142e-04 -2.966312e-04 -6.559575e-05
 8.221150e-05 -2.734463e-04 -1.273228e-04
 4.994902e-05 -2.412231e-04 -1.663589e-04
 2.850738e-05 -1.955159e-04 -1.971956e-04
 5.151608e-06 -1.734620e-04 -2.069140e-04
-5.136805e-05 -1.280725e-04 -2.096540e-04
-1.062584e-05 -1.127082e-04 -1.444063e-04
 1.061196e-04 -3.237867e-04 -9.500356e-05
 1.460677e-04 -2.475243e-04 -1.368747e-04
 1.467040e-04 -1.333870e-04 -1.142310e-04
 1.454570e-04 -4.999323e-05 -6.437783e-05
 1.501273e-04 -1.341215e-05 -9.418781e-06
 2.069668e-04  2.355705e-05  4.976529e-05
 2.257929e-04  4.451499e-05  1.911874e-04
 1.409190e-04 -2.511582e-05  2.344346e-04
 3.064512e-05 -8.326903e-05  3.439422e-04
 2.539013e-05 -1.376751e-04  4.443929e-04
-8.387108e-05 -9.651976e-05  5.524244e-04
-1.358102e-04 -4.017385e-05  5.747300e-04
-9.894979e-05 -3.911157e-05  5.391624e-04
-5.931995e-05 -1.562776e-05  3.497218e-04
-1.411369e-06 -4.055084e-05  1.467066e-04
 8.629883e-05 -5.296542e-05  9.315134e-05
 8.643045e-05 -7.677456e-05  1.500710e-04
 1.258307e-06 -1.047170e-04  2.663973e-04
-4.141250e-05 -1.181278e-04  3.889541e-04
 6.483125e-05 -1.396334e-04  4.022635e-04
 1.719958e-04 -1.834322e-04  3.314729e-04
 1.914217e-04 -1.947846e-04  2.694759e-04
 1.892296e-04 -2.246238e-04  2.321114e-04
 1.634305e-04 -2.649583e-04  1.552027e-04
 1.401696e-04 -3.054138e-04  7.561935e-05
 1.235086e-04 -3.061412e-04 -6.647327e-06
 1.043218e-04 -2.798811e-04 -7.536191e-05
 9.482701e-05 -2.393706e-04 -1.303565e-04
 8.177378e-05 -1.970933e-04 -1.600920e-04
 7.548855e-05 -1.441148e-04 -1.911274e-04
 5.649181e-05 -9.808829e-05 -2.156532e-04
 1.155939e-04 -1.492229e-04 -8.350778e-05
 1.969634e-04 -2.938549e-04 -9.130649e-05
 1.927720e-04 -2.331457e-04 -1.690822e-04
 1.936013e-04 -1.356780e-04 -1.431560e-04
 2.196269e-04 -8.796960e-05 -8.185465e-05
 2.741691e-04 -5.523803e-05 -3.234277e-05
 2.456373e-04 -1.228984e-06  9.680971e-05
 1.799446e-04 -4.121798e-05  1.362283e-04
 1.530631e-04 -1.118084e-04  1.969197e-04
 1.092558e-04 -1.410495e-04  3.107582e-04
 1.240825e-04 -1.673347e-04  4.114768e-04
 1.306062e-06 -1.513494e-04  4.978304e-04
-9.122505e-05 -1.310156e-04  5.156309e-04
-7.262802e-05 -1.466990e-04  4.846134e-04
-4.489167e-05 -1.500054e-04  3.333838e-04
 6.373721e-06 -1.491691e-04  1.784075e-04
 9.733204e-05 -1.530459e-04  1.279059e-04
 9.846544e-05 -1.286743e-04  1.737351e-04
 3.228582e-05 -1.119277e-04  2.740683e-04
-1.749929e-05 -1.365865e-04  3.688532e-04
 1.478528e-05 -1.785681e-04  3.789457e-04
 9.806495e-05 -2.558448e-04  2.980342e-04
 1.566580e-04 -2.595370e-04  2.515751e-04
 1.684450e-04 -2.419587e-04  2.142898e-04
 1.597340e-04 -2.747190e-04  1.722243e-04
 1.512485e-04 -3.137396e-04  1.073730e-04
 1.373839e-04 -3.162660e-04  3.329552e-05
 1.325681e-04 -2.898704e-04 -4.293557e-05
 1.280841e-04 -2.535592e-04 -8.808691e-05
 1.369978e-04 -1.955591e-04 -1.473124e-04
 1.358175e-04 -1.390807e-04 -1.643395e-04
 1.633213e-04 -7.115044e-05 -1.969654e-04
 2.359291e-04 -2.083190e-04 -9.894047e-05
 2.065711e-04 -2.643690e-04 -1.261452e-04
 1.721504e-04 -2.132305e-04 -1.581119e-04
 2.149770e-04 -1.258261e-04 -1.243266e-04
 2.142556e-04 -8.073883e-05 -1.523370e-05
 1.683608e-04  2.316848e-05  1.370449e-04
 1.815283e-04 -2.645704e-07  1.440052e-04
 2.281232e-04 -8.054897e-05  1.496925e-04
 2.324127e-04 -1.489547e-04  2.048625e-04
 2.026175e-04 -1.734653e-04  3.028249e-04
 1.951699e-04 -1.634075e-04  3.528368e-04
 5.991012e-05 -1.654560e-04  4.082984e-04
-5.432973e-05 -1.816709e-04  4.100047e-04
-4.732568e-05 -2.162830e-04  4.001809e-04
-4.700040e-05 -2.379024e-04  3.041250e-04
-2.086271e-05 -2.447055e-04  2.099711e-04
 8.190726e-05 -2.504462e-04  1.905008e-04
 9.395633e-05 -1.865078e-04  2.271011e-04
 5.697777e-05 -1.320578e-04  3.084214e-04
 4.317472e-05 -1.901673e-04  3.254604e-04
 4.426236e-05 -1.828508e-04  3.450681e-04
 2.965404e-05 -2.342359e-04  2.925549e-04
 1.901225e-05 -2.918212e-04  1.769044e-04
 6.118467e-05 -2.978460e-04  1.679459e-04
 1.106310e-04 -3.157550e-04  1.480240e-04
 1.270663e-04 -3.218441e-04  1.055482e-04
 1.396233e-04 -3.224528e-04  4.633825e-05
 1.507194e-04 -3.038665e-04 -8.590467e-06
 1.697261e-04 -2.611948e-04 -7.261433e-05
 1.709881e-04 -2.022092e-04 -1.008272e-04
 1.973838e-04 -1.368561e-04 -1.378242e-04
 2.794333e-04 -1.040117e-04 -1.406640e-04
 2.709705e-04 -2.582394e-04 -1.518722e-04
 1.923135e-04 -2.211610e-04 -1.038308e-04
 1.298583e-04 -1.565353e-04 -4.345748e-05
 7.835787e-05 -9.386216e-05 -1.108179e-06
 8.699707e-05 -3.408783e-05  1.721937e-04
 1.507254e-04  2.918513e-05  2.191357e-04
 1.946038e-04  1.873671e-06  2.169309e-04
 2.232667e-04 -4.115171e-05  2.087214e-04
 2.550517e-04 -1.021075e-04  2.330475e-04
 2.580564e-04 -1.551110e-04  2.798333e-04
 2.331274e-04 -1.318098e-04  2.673995e-04
 9.871460e-05 -1.517395e-04  3.055254e-04
-1.882034e-05 -1.815107e-04  2.856888e-04
-2.664178e-05 -2.037178e-04  2.919946e-04
-4.782166e-05 -2.514600e-04  2.616678e-04
-5.952742e-05 -2.747494e-04  2.319468e-04
 2.802767e-05 -3.015531e-04  2.499222e-04
 4.138074e-05 -2.020983e-04  2.883533e-04
-3.131376e-05 -1.452734e-04  3.343042e-04
-5.971878e-05 -2.045747e-04  3.493318e-04
-1.164500e-05 -1.826938e-04  3.036990e-04
 7.864463e-05 -1.930024e-04  2.370983e-04
 1.424268e-04 -2.235199e-04  2.014756e-04
 1.141030e-04 -2.830173e-04  1.386077e-04
 6.253585e-05 -3.289921e-04  5.744433e-05
 6.611609e-05 -3.769406e-04  6.981121e-06
 1.056717e-04 -3.875247e-04 -2.279394e-05
 1.358348e-04 -3.510907e-04 -6.109995e-05
 1.372148e-04 -3.029559e-04 -1.000734e-04
 1.756137e-04 -2.280560e-04 -1.376389e-04
 2.321036e-04 -1.550797e-04 -1.378908e-04
 2.138608e-04 -2.334026e-04 -2.313845e-04
 1.442472e-04 -2.900755e-04 -2.221369e-04
 5.000527e-05 -1.809822e-04 -1.278791e-04
 2.792557e-05 -1.145413e-04 -1.193616e-04
 8.997228e-05 -1.083066e-04 -1.727146e-06
 1.498923e-04 -7.865837e-05  1.217214e-04
 1.959071e-04 -4.426382e-05  1.782618e-04
 2.367193e-04 -2.610327e-05  2.119309e-04
 2.494167e-04 -3.252621e-05  2.429041e-04
 2.426772e-04 -4.901213e-05  2.506973e-04
 2.685998e-04 -1.188792e-04  2.379328e-04
 2.493832e-04 -1.250706e-04  1.819421e-04
 1.512520e-04 -1.683258e-04  2.122107e-04
 7.303303e-06 -1.253162e-04  1.680277e-04
-2.440839e-05 -1.325429e-04  1.871948e-04
-4.262077e-05 -1.912102e-04  2.008674e-04
-9.989219e-05 -2.093701e-04  1.940256e-04
-8.777676e-05 -2.479494e-04  2.261362e-04
-1.022114e-04 -1.658509e-04  2.844075e-04
-1.464439e-04 -1.063832e-04  3.359136e-04
-1.775461e-04 -1.570475e-04  2.471517e-04
-1.311637e-04 -1.746960e-04  1.665401e-04
-2.770108e-05 -1.887145e-04  8.811988e-05
 8.636474e-05 -2.016945e-04  5.740768e-05
 2.199975e-04 -2.422064e-04  7.890766e-05
 2.690437e-04 -2.758539e-04  1.016093e-04
 2.087404e-04 -3.376379e-04 -9.973040e-06
 1.398120e-04 -4.163512e-04 -1.100804e-04
 1.220857e-04 -3.961719e-04 -1.179361e-04
 1.459979e-04 -3.478624e-04 -1.294466e-04
 1.375358e-04 -2.528568e-04 -1.236797e-04
 1.115319e-04 -2.394479e-04 -2.072663e-04
 1.003316e-04 -2.887037e-04 -2.741307e-04
 3.567591e-05 -3.141996e-04 -2.452730e-04
 2.399242e-05 -2.111036e-04 -1.210830e-04
 9.007763e-05 -1.486812e-04 -1.085727e-04
 1.202414e-04 -1.518126e-04 -1.272809e-05
 1.563688e-04 -1.239663e-04  9.457977e-05
 2.087950e-04 -7.160851e-05  1.500900e-04
 2.452676e-04 -5.127505e-05  1.795875e-04
 2.649546e-04 -4.340088e-05  2.187025e-04
 2.526491e-04 -1.916392e-05  2.457490e-04
 2.539581e-04 -7.394394e-05  1.887288e-04
 3.018662e-04 -1.726378e-04  1.926179e-04
 1.328327e-04 -1.811616e-04  1.944189e-04
-1.883385e-05 -7.865123e-05  1.187997e-04
-3.827415e-05 -3.687183e-05  1.191856e-04
-5.404178e-05 -8.034107e-05  1.142772e-04
-1.220054e-04 -6.443459e-05  9.399649e-05
-2.003947e-04 -7.559876e-05  1.198461e-04
-2.095335e-04 -8.773251e-05  2.066748e-04
-1.692150e-04 -3.364793e-05  3.139562e-04
-1.609712e-04 -8.759453e-05  1.823234e-04
-1.428107e-04 -1.217342e-04  1.316238e-04
-7.749426e-05 -1.580897e-04  6.891810e-05
 2.053899e-05 -2.170430e-04  2.189539e-05
 9.376228e-05 -2.657416e-04  3.161350e-05
 1.634880e-04 -2.753168e-04  6.823560e-05
 2.187748e-04 -2.864689e-04  8.630110e-05
 2.370925e-04 -3.270012e-04  3.656700e-05
 2.006485e-04 -3.466258e-04 -3.381825e-05
 1.107458e-04 -3.002835e-04 -4.032226e-05
 8.214309e-05 -2.575842e-04 -7.300369e-05
 1.134668e-04 -2.477159e-04 -1.436139e-04
 1.071295e-04 -2.185994e-04 -1.990997e-04
 5.176043e-05 -2.301985e-04 -1.591743e-04
 5.335487e-05 -2.851276e-04 -1.010465e-04
 1.182877e-04 -1.806356e-04 -1.255571e-04
 1.366654e-04 -1.742879e-04 -3.218169e-05
 1.519170e-04 -1.547855e-04  8.634324e-05
 1.986115e-04 -1.103291e-04  1.368312e-04
 2.342728e-04 -8.381011e-05  1.638526e-04
 2.592086e-04 -4.435200e-05  1.947729e-04
 2.277926e-04 -2.419581e-05  2.330756e-04
 2.700630e-04 -7.207098e-05  1.992614e-04
 2.130176e-04 -1.209259e-04  1.669234e-04
 1.022070e-04 -1.232869e-04  1.866877e-04
-5.576728e-06 -6.175063e-05  9.969884e-05
-3.296334e-05  7.871435e-05  7.516696e-05
-5.217269e-05  3.751162e-05  5.528837e-05
-1.228507e-04  1.105927e-04  2.547793e-05
-2.033316e-04  1.382796e-04  3.526759e-05
-2.825853e-04  2.584891e-05  8.994473e-05
-2.003758e-04  8.596936e-06  1.887688e-04
-1.392417e-04  9.236399e-07  1.560255e-04
-1.589256e-04 -7.635615e-05  1.404955e-04
-9.126031e-05 -1.445356e-04  7.817261e-05
-1.911764e-05 -2.096003e-04  2.869012e-05
 5.903664e-05 -2.738156e-04  8.212178e-06
 1.049398e-04 -3.124654e-04  1.233762e-05
 1.258891e-04 -3.201006e-04  1.014627e-05
 1.367503e-04 -2.954818e-04 -2.729818e-05
 1.508059e-04 -2.790475e-04 -7.737217e-05
 1.729377e-04 -2.581088e-04 -1.055300e-04
 1.541105e-04 -2.376460e-04 -8.972530e-05
 1.166976e-04 -2.115323e-04 -1.315611e-04
 1.112617e-04 -1.674238e-04 -1.675209e-04
 9.200517e-05 -1.526267e-04 -1.472967e-04
 5.115703e-05 -2.537496e-04 -2.967859e-05
 9.938036e-05 -2.358132e-04 -1.467968e-04
 1.398470e-04 -1.882824e-04 -6.194687e-05
 1.349324e-04 -1.928893e-04  7.384110e-05
 1.745968e-04 -1.656618e-04  1.285006e-04
 2.163939e-04 -1.178957e-04  1.344572e-04
 2.177345e-04 -8.179468e-05  1.731786e-04
 2.307644e-04 -6.503576e-05  2.478168e-04
 2.608150e-04 -1.335397e-04  2.051422e-04
 8.205836e-05 -3.685288e-05  1.999118e-04
 2.616314e-05 -4.317875e-05  2.750297e-04
-1.079686e-05 -1.662385e-05  1.264463e-04
 1.191556e-05  1.621122e-04  5.338876e-05
-1.151649e-05  1.476178e-04  4.080846e-05
-9.934357e-05  2.470417e-04 -1.987367e-05
-1.488938e-04  3.009665e-04 -3.161004e-05
-2.392426e-04  2.024557e-04  1.278443e-05
-2.689630e-04  1.794791e-05  2.701752e-05
-1.885220e-04  4.489740e-05  6.267398e-05
-1.651381e-04 -7.802204e-05  1.095605e-04
-1.368515e-04 -1.482285e-04  7.451101e-05
-5.956336e-05 -2.289616e-04  1.676594e-05
 6.823088e-06 -2.895546e-04 -1.691808e-05
 5.215953e-05 -3.207466e-04 -1.782730e-05
 6.814678e-05 -3.234137e-04 -4.933161e-05
 7.149163e-05 -3.105551e-04 -7.596932e-05
 1.044206e-04 -2.804170e-04 -1.161360e-04
 1.371376e-04 -2.493645e-04 -1.357957e-04
 1.196711e-04 -2.101345e-04 -1.439863e-04
 9.029659e-05 -1.915021e-04 -1.755124e-04
 9.271134e-05 -1.644364e-04 -2.055231e-04
 1.275748e-04 -1.578666e-04 -1.894409e-04
 1.242171e-04 -1.738878e-04 -1.299822e-04
 1.043113e-04 -2.591024e-04 -7.800955e-05
 1.148957e-04 -2.031389e-04 -1.531986e-04
 1.235112e-04 -2.413231e-04  4.462049e-06
 1.362760e-04 -2.456587e-04  8.453099e-05
 1.492728e-04 -2.013242e-04  1.069004e-04
 1.560774e-04 -1.133176e-04  1.828587e-04
 1.203408e-04 -8.825134e-05  2.721778e-04
 1.013239e-04 -6.643336e-05  1.147448e-04
-9.052512e-05  2.171964e-05  2.440045e-04
-5.818817e-05  2.470518e-05  3.189830e-04
-7.855490e-05  9.111426e-05  1.845327e-04
-2.612174e-05  1.731154e-04  9.705888e-05
-1.101661e-05  2.170532e-04  8.004892e-05
-9.544296e-05  3.211356e-04 -9.717815e-06
-1.162524e-04  3.702645e-04 -4.240523e-05
-1.483968e-04  3.047497e-04 -1.631338e-05
-1.729690e-04  1.076885e-04  5.062083e-05
-1.719379e-04  2.302760e-05 -6.494461e-05
-1.848842e-04 -9.957981e-05  4.074646e-06
-1.714877e-04 -2.169887e-04  2.518710e-05
-1.284780e-04 -2.689240e-04 -2.505294e-05
-7.652222e-05 -3.163215e-04 -6.049840e-05
-3.239008e-05 -3.503883e-04 -6.960522e-05
 1.008288e-05 -3.359094e-04 -8.667271e-05
 4.759688e-05 -2.973700e-04 -1.298278e-04
 7.789815e-05 -2.689422e-04 -1.523969e-04
 8.574143e-05 -2.199199e-04 -1.695088e-04
 6.320143e-05 -1.736915e-04 -1.823777e-04
 4.859644e-05 -1.579232e-04 -2.241101e-04
 6.052551e-05 -1.463251e-04 -2.563647e-04
 9.463115e-05 -1.458391e-04 -2.582815e-04
 1.350235e-04 -1.628309e-04 -1.999689e-04
 1.576544e-04 -2.270082e-04 -1.641982e-04
 1.619811e-04 -2.157597e-04 -1.107922e-04
 1.205067e-04 -1.827662e-04 -9.778088e-05
 5.291933e-05 -2.325090e-04 -2.633208e-05
-2.471650e-06 -1.562605e-04  6.809084e-05
-9.873766e-05 -2.394679e-05  1.806821e-04
-1.139905e-04 -2.159492e-05  1.188732e-04
-9.416726e-05  3.076354e-05  1.514706e-04
-1.968667e-04  1.051350e-04  2.378270e-04
-1.790782e-04  1.068386e-04  2.893955e-04
-1.775003e-04  2.139094e-04  2.063540e-04
-1.314733e-04  1.347563e-04  1.558538e-04
-1.095529e-04  2.494831e-04  1.219316e-04
-1.412576e-04  3.489230e-04  5.256130e-05
-1.508502e-04  3.604448e-04  2.819073e-05
-1.269493e-04  2.951243e-04  5.440230e-05
-1.267468e-04  1.664978e-04  8.160878e-05
-8.045678e-05  4.450822e-05  7.676232e-05
-5.378430e-05 -4.831837e-05 -5.463630e-05
-1.488664e-04 -2.191464e-04 -9.120651e-05
-1.770531e-04 -3.151977e-04 -8.887666e-05
-1.411449e-04 -3.634227e-04 -1.045893e-04
-1.214125e-04 -4.053717e-04 -1.043596e-04
-9.235952e-05 -4.095774e-04 -1.279386e-04
-1.628247e-05 -3.299108e-04 -1.728612e-04
 2.592350e-05 -2.387234e-04 -1.966386e-04
 9.263847e-06 -1.748291e-04 -1.893946e-04
-9.831829e-06 -1.453199e-04 -2.053526e-04
-1.663055e-05 -1.377920e-04 -2.491216e-04
 4.185396e-06 -1.285928e-04 -2.964357e-04
 3.827252e-05 -1.324355e-04 -3.033192e-04
 7.336859e-05 -1.631466e-04 -2.676587e-04
 8.528722e-05 -2.126068e-04 -2.246882e-04
 7.999179e-05 -2.298218e-04 -2.025637e-04
 5.540462e-05 -1.263075e-04 -1.131365e-04
-6.165663e-05 -7.281568e-05 -8.849373e-05
-2.045105e-04  9.421376e-06 -3.258429e-05
-2.261643e-04  3.027664e-05  1.931283e-05
-2.211163e-04  4.174652e-05  9.622746e-05
-2.280718e-04  8.190676e-05  1.313216e-04
-2.971150e-04  1.746298e-04  1.654390e-04
-3.043699e-04  2.070918e-04  2.478055e-04
-2.986024e-04  2.679851e-04  1.729202e-04
-2.261322e-04  9.410394e-05  1.248731e-04
-1.840675e-04  2.668774e-04  1.267367e-04
-1.911328e-04  3.313159e-04  7.388241e-05