# vtk DataFile Version 2.0
Generated by vtk_extract.c
ASCII
DATASET STRUCTURED_POINTS
DIMENSIONS 32 32 32
ORIGIN 0 0 0
SPACING 1 1 1
POINT_DATA 32768
VECTORS director float
 9.989947e-01 -4.375101e-02  9.769845e-03
 9.980990e-01 -5.978756e-02  1.496330e-02
 9.970232e-01 -7.474138e-02  1.893469e-02
 9.963372e-01 -8.291908e-02  2.089588e-02
 9.969931e-01 -7.483011e-02  2.012746e-02
 9.990369e-01 -4.096311e-02  1.572438e-02
 9.998474e-01  1.536801e-02  8.302676e-03
 9.980712e-01  6.206189e-02  1.516575e-03
 9.966575e-01  8.165601e-02 -2.470576e-03
 9.967320e-01  8.068337e-02 -3.929945e-03
 9.975745e-01  6.948797e-02 -4.060667e-03
 9.984471e-01  5.558553e-02 -3.698162e-03
 9.990926e-01  4.246811e-02 -3.241089e-03
 9.994978e-01  3.155674e-02 -2.880547e-03
 9.997317e-01  2.300856e-02 -2.660910e-03
 9.998592e-01  1.658185e-02 -2.592080e-03
 9.999259e-01  1.187817e-02 -2.671147e-03
 9.999594e-01  8.536646e-03 -2.899088e-03
 9.999751e-01  6.253447e-03 -3.284132e-03
 9.999811e-01  4.795914e-03 -3.839652e-03
 9.999816e-01  3.981724e-03 -4.579964e-03
 9.999781e-01  3.659412e-03 -5.510915e-03
 9.999713e-01  3.685402e-03 -6.619464e-03
 9.999616e-01  3.895777e-03 -7.851397e-03
 9.999503e-01  4.085227e-03 -9.097998e-03
 9.999405e-01  3.966917e-03 -1.015965e-02
 9.999371e-01  3.169450e-03 -1.075782e-02
 9.999442e-01  1.189584e-03 -1.050103e-02
 9.999560e-01 -2.518896e-03 -9.034029e-03
 9.999450e-01 -8.579670e-03 -6.029093e-03
 9.998473e-01 -1.740313e-02 -1.581006e-03
 9.995648e-01 -2.923142e-02  3.957734e-03
 9.995452e-01 -2.852156e-02  9.788592e-03
 9.991371e-01 -3.861291e-02  1.530257e-02
 9.987430e-01 -4.641234e-02  1.892761e-02
 9.986192e-01 -4.850983e-02  2.016087e-02
 9.989786e-01 -4.094469e-02  1.911252e-02
 9.996442e-01 -2.139757e-02  1.592568e-02
 9.999134e-01  6.706193e-03  1.132731e-02
 9.994791e-01  3.154629e-02  6.810984e-03
 9.989661e-01  4.533610e-02  3.360930e-03
 9.988172e-01  4.861104e-02  1.116402e-03
 9.989875e-01  4.498781e-02 -1.940827e-04
 9.992666e-01  3.828124e-02 -9.185641e-04
 9.995245e-01  3.080659e-02 -1.351345e-03
 9.997138e-01  2.386823e-02 -1.641559e-03
 9.998363e-01  1.799468e-02 -1.896070e-03
 9.999090e-01  1.331535e-02 -2.168273e-03
 9.999493e-01  9.757058e-03 -2.501771e-03
 9.999699e-01  7.177563e-03 -2.933099e-03
 9.999792e-01  5.425483e-03 -3.499260e-03
 9.999815e-01  4.365099e-03 -4.237174e-03
 9.999791e-01  3.880119e-03 -5.180968e-03
 9.999723e-01  3.865642e-03 -6.354523e-03
 9.999610e-01  4.214858e-03 -7.759067e-03
 9.999448e-01  4.797017e-03 -9.351405e-03
 9.999245e-01  5.436934e-03 -1.101865e-02
 9.999042e-01  5.879509e-03 -1.253436e-02
 9.998913e-01  5.784545e-03 -1.355880e-02
 9.998967e-01  4.686056e-03 -1.359082e-02
 9.999241e-01  2.095372e-03 -1.214104e-02
 9.999586e-01 -2.515578e-03 -8.742250e-03
 9.999504e-01 -9.330073e-03 -3.495741e-03
 9.998283e-01 -1.827229e-02  3.092181e-03
 9.998213e-01 -1.553348e-02  1.077475e-02
 9.996014e-01 -2.246440e-02  1.709897e-02
 9.994091e-01 -2.727898e-02  2.091093e-02
 9.993657e-01 -2.803936e-02  2.195401e-02
 9.995174e-01 -2.311239e-02  2.075481e-02
 9.997659e-01 -1.217620e-02  1.788353e-02
 9.998971e-01  2.602882e-03  1.410726e-02
 9.998143e-01  1.630294e-02  1.027572e-02
 9.996569e-01  2.525152e-02  6.960143e-03
 9.995735e-01  2.887534e-02  4.362660e-03
 9.995967e-01  2.829309e-02  2.438997e-03
 9.996798e-01  2.528216e-02  1.060996e-03
 9.997748e-01  2.122093e-02  6.417716e-05
 9.998547e-01  1.703369e-02 -6.874081e-04
 9.999118e-01  1.321648e-02 -1.294801e-03
 9.999482e-01  1.001488e-02 -1.839831e-03
 9.999690e-01  7.498167e-03 -2.388197e-03
 9.999795e-01  5.656883e-03 -3.000030e-03
 9.999832e-01  4.440468e-03 -3.732838e-03
 9.999820e-01  3.789607e-03 -4.642355e-03
 9.999767e-01  3.643341e-03 -5.780276e-03
 9.999664e-01  3.940402e-03 -7.186550e-03
 9.999500e-01  4.610517e-03 -8.877768e-03
 9.999260e-01  5.558971e-03 -1.082024e-02
 9.998947e-01  6.646797e-03 -1.290351e-02
 9.998599e-01  7.659998e-03 -1.488368e-02
 9.998318e-01  8.296533e-03 -1.635683e-02
 9.998272e-01  8.141887e-03 -1.671344e-02
 9.998605e-01  6.736506e-03 -1.528659e-02
 9.999280e-01  3.614961e-03 -1.144137e-02
 9.999855e-01 -1.376665e-03 -5.198744e-03
 9.999637e-01 -8.059957e-03  2.772207e-03
 9.999159e-01 -4.158247e-03  1.228327e-02
 9.997629e-01 -9.517984e-03  1.958488e-02
 9.996263e-01 -1.346805e-02  2.378819e-02
 9.995827e-01 -1.478870e-02  2.481461e-02
 9.996442e-01 -1.269690e-02  2.345687e-02
 9.997632e-01 -7.229438e-03  2.052612e-02
 9.998580e-01  4.140553e-04  1.684430e-02
 9.998831e-01  7.949216e-03  1.306476e-02
 9.998625e-01  1.350883e-02  9.618281e-03
 9.998424e-01  1.643271e-02  6.711427e-03
 9.998468e-01  1.694738e-02  4.374827e-03
 9.998718e-01  1.580440e-02  2.555559e-03
 9.999049e-01  1.374026e-02  1.152564e-03
 9.999355e-01  1.135357e-02  6.108644e-05
 9.999590e-01  9.022138e-03 -8.228266e-04
 9.999744e-01  6.976367e-03 -1.587047e-03
 9.999831e-01  5.334348e-03 -2.314234e-03
 9.999867e-01  4.146526e-03 -3.079344e-03
 9.999863e-01  3.424125e-03 -3.955710e-03
 9.999824e-01  3.158828e-03 -5.014202e-03
 9.999745e-01  3.332992e-03 -6.321834e-03
 9.999608e-01  3.921695e-03 -7.933843e-03
 9.999392e-01  4.888547e-03 -9.879387e-03
 9.999073e-01  6.173919e-03 -1.213637e-02
 9.998640e-01  7.677997e-03 -1.459392e-02
 9.998129e-01  9.234042e-03 -1.699433e-02
 9.997655e-01  1.058775e-02 -1.889165e-02
 9.997437e-01  1.138122e-02 -1.956894e-02
 9.997719e-01  1.119486e-02 -1.818732e-02
 9.998574e-01  9.574947e-03 -1.391043e-02
 9.999580e-01  6.310132e-03 -6.641755e-03
 9.999949e-01  1.483315e-03  2.815486e-03
 9.998843e-01  6.627030e-03  1.369411e-02
 9.997576e-01  1.887964e-03  2.193606e-02
 9.996425e-01 -2.407286e-03  2.662785e-02
 9.995989e-01 -5.271805e-03  2.782446e-02
 9.996325e-01 -5.986727e-03  2.643838e-02
 9.997160e-01 -4.417626e-03  2.341931e-02
 9.998070e-01 -1.125228e-03  1.961563e-02
 9.998738e-01  2.708483e-03  1.565350e-02
 9.999107e-01  6.002734e-03  1.193622e-02
 9.999290e-01  8.148266e-03  8.689578e-03
 9.999414e-01  9.018939e-03  5.982242e-03
 9.999536e-01  8.852504e-03  3.798818e-03
 9.999659e-01  7.994294e-03  2.064893e-03
 9.999767e-01  6.792426e-03  6.897537e-04
 9.999847e-01  5.512567e-03 -4.263998e-04
 9.999896e-01  4.342406e-03 -1.379744e-03
 9.999917e-01  3.400855e-03 -2.261684e-03
 9.999912e-01  2.762459e-03 -3.159925e-03
 9.999883e-01  2.469506e-03 -4.159793e-03
 9.999825e-01  2.546758e-03 -5.344858e-03
 9.999724e-01  3.007341e-03 -6.794905e-03
 9.999558e-01  3.856191e-03 -8.577331e-03
 9.999295e-01  5.086796e-03 -1.073380e-02
 9.998900e-01  6.673791e-03 -1.324697e-02
 9.998353e-01  8.557224e-03 -1.600750e-02
 9.997679e-01  1.062537e-02 -1.874411e-02
 9.996996e-01  1.268352e-02 -2.097370e-02
 9.996555e-01  1.444595e-02 -2.191163e-02
 9.996679e-01  1.553437e-02 -2.056385e-02
 9.997527e-01  1.550669e-02 -1.594189e-02
 9.998714e-01  1.400811e-02 -7.810507e-03
 9.999361e-01  1.092165e-02  2.921312e-03
 9.997408e-01  1.782994e-02  1.415848e-02
 9.996467e-01  1.295657e-02  2.320853e-02
 9.995649e-01  7.285839e-03  2.858358e-02
 9.995386e-01  2.010001e-03  3.030764e-02
 9.995707e-01 -1.706783e-03  2.924901e-02
 9.996470e-01 -3.320530e-03  2.635832e-02
 9.997428e-01 -2.985988e-03  2.248190e-02
 9.998317e-01 -1.459764e-03  1.828614e-02
 9.998987e-01  4.374033e-04  1.422737e-02
 9.999417e-01  2.074324e-03  1.059302e-02
 9.999670e-01  3.135904e-03  7.495899e-03
 9.999813e-01  3.581923e-03  4.952564e-03
 9.999896e-01  3.528792e-03  2.904567e-03
 9.999942e-01  3.158737e-03  1.265930e-03
 9.999965e-01  2.647414e-03 -6.543328e-05
 9.999970e-01  2.143071e-03 -1.191282e-03
 9.999960e-01  1.755833e-03 -2.212699e-03
 9.999936e-01  1.566868e-03 -3.226531e-03
 9.999893e-01  1.635344e-03 -4.328436e-03
 9.999822e-01  2.006272e-03 -5.611809e-03
 9.999706e-01  2.715774e-03 -7.166310e-03
 9.999517e-01  3.793797e-03 -9.069334e-03
 9.999215e-01  5.263012e-03 -1.136912e-02
 9.998758e-01  7.133567e-03 -1.405432e-02
 9.998112e-01  9.392806e-03 -1.701098e-02
 9.997289e-01  1.198811e-02 -1.995786e-02
 9.996393e-01  1.480395e-02 -2.240712e-02
 9.995675e-01  1.763618e-02 -2.353408e-02
 9.995488e-01  2.015424e-02 -2.227028e-02
 9.996062e-01  2.191992e-02 -1.752006e-02
 9.997095e-01  2.238002e-02 -8.943421e-03
 9.997746e-01  2.108287e-02  2.519477e-03
 9.994583e-01  3.039485e-02  1.262175e-02
 9.994457e-01  2.451116e-02  2.252719e-02
 9.994435e-01  1.615467e-02  2.918414e-02
 9.994543e-01  7.252219e-03  3.222623e-02
 9.994840e-01  1.300958e-06  3.212126e-02
 9.995496e-01 -4.484108e-03  2.967393e-02
 9.996484e-01 -6.196763e-03  2.578229e-02
 9.997559e-01 -5.934940e-03  2.128146e-02
 9.998487e-01 -4.621611e-03  1.677008e-02
 9.999154e-01 -3.034746e-03  1.264724e-02
 9.999574e-01 -1.644433e-03  9.088072e-03
 9.999809e-01 -6.456354e-04  6.140582e-03
 9.999929e-01 -4.905370e-05  3.755017e-03
 9.999983e-01  2.335010e-04  1.843059e-03
 9.999999e-01  3.248732e-04  2.950892e-04
 9.999994e-01  3.467663e-04 -1.000549e-03
 9.999976e-01  4.038455e-04 -2.154172e-03
 9.999945e-01  5.819182e-04 -3.272254e-03
 9.999896e-01  9.512174e-04 -4.458545e-03
 9.999819e-01  1.572079e-03 -5.814093e-03
 9.999692e-01  2.499687e-03 -7.435710e-03
 9.999486e-01  3.787581e-03 -9.407060e-03
 9.999155e-01  5.489504e-03 -1.178537e-02
 9.998646e-01  7.656769e-03 -1.456581e-02
 9.997909e-01  1.033302e-02 -1.764536e-02
 9.996931e-01  1.354012e-02 -2.074706e-02
 9.995780e-01  1.725606e-02 -2.336886e-02
 9.994666e-01  2.137433e-02 -2.468930e-02
 9.993919e-01  2.562391e-02 -2.364720e-02
 9.993807e-01  2.953352e-02 -1.913287e-02
 9.994207e-01  3.228641e-02 -1.076128e-02
 9.994579e-01  3.291578e-02  6.498923e-04
 9.989401e-01  4.538058e-02  7.697724e-03
 9.991255e-01  3.728578e-02  1.892341e-02
 9.993101e-01  2.421466e-02  2.815875e-02
 9.993749e-01  9.688379e-03  3.399922e-02
 9.993557e-01 -2.032982e-03  3.583269e-02
 9.993746e-01 -9.114567e-03  3.416770e-02
 9.994731e-01 -1.190834e-02  3.019542e-02
 9.996143e-01 -1.177884e-02  2.515083e-02
 9.997503e-01 -1.011221e-02  1.992820e-02
 9.998542e-01 -7.960309e-03  1.510346e-02
 9.999228e-01 -5.915376e-03  1.092892e-02
 9.999630e-01 -4.249447e-03  7.475579e-03
 9.999845e-01 -3.017234e-03  4.688942e-03
 9.999946e-01 -2.155353e-03  2.467318e-03
 9.999986e-01 -1.555200e-03  6.832210e-04
 9.999991e-01 -1.098718e-03 -7.900989e-04
 9.999976e-01 -6.781093e-04 -2.076693e-03
 9.999946e-01 -1.993077e-04 -3.293426e-03
 9.999895e-01  4.191839e-04 -4.552508e-03
 9.999814e-01  1.252244e-03 -5.961478e-03
 9.999681e-01  2.373459e-03 -7.622150e-03
 9.999462e-01  3.861702e-03 -9.624843e-03
 9.999108e-01  5.804855e-03 -1.203244e-02
 9.998552e-01  8.304814e-03 -1.485620e-02
 9.997720e-01  1.147329e-02 -1.800984e-02
 9.996552e-01  1.542856e-02 -2.124941e-02
 9.995039e-01  2.026119e-02 -2.411314e-02
 9.993287e-01  2.598710e-02 -2.582227e-02
 9.991520e-01  3.240842e-02 -2.539678e-02
 9.990011e-01  3.901070e-02 -2.179425e-02
 9.988994e-01  4.458925e-02 -1.455205e-02
 9.988651e-01  4.744778e-02 -4.147140e-03
 9.979272e-01  6.429535e-02 -2.716655e-03
 9.985639e-01  5.242014e-02  1.105456e-02
 9.991863e-01  3.113013e-02  2.564356e-02
 9.992829e-01  7.515503e-03  3.710966e-02
 9.990540e-01 -9.957567e-03  4.233156e-02
 9.989582e-01 -1.891204e-02  4.153247e-02
 9.990897e-01 -2.126071e-02  3.698247e-02
 9.993342e-01 -1.971001e-02  3.070227e-02
 9.995702e-01 -1.654247e-02  2.420107e-02
 9.997482e-01 -1.305704e-02  1.825145e-02
 9.998637e-01 -9.938503e-03  1.318571e-02
 9.999315e-01 -7.422397e-03  9.049965e-03
 9.999682e-01 -5.512321e-03  5.759906e-03
 9.999866e-01 -4.103668e-03  3.168230e-03
 9.999947e-01 -3.058577e-03  1.116634e-03
 9.999973e-01 -2.238889e-03 -5.500810e-04
 9.999969e-01 -1.521678e-03 -1.974790e-03
 9.999943e-01 -8.001699e-04 -3.288855e-03
 9.999894e-01  2.019015e-05 -4.614254e-03
 9.999811e-01  1.028931e-03 -6.065629e-03
 9.999673e-01  2.318867e-03 -7.751583e-03
 9.999443e-01  3.995198e-03 -9.768917e-03
 9.999065e-01  6.185233e-03 -1.219597e-02
 9.998456e-01  9.047778e-03 -1.506306e-02
 9.997503e-01  1.278020e-02 -1.833026e-02
 9.996070e-01  1.761626e-02 -2.180792e-02
 9.994009e-01  2.379538e-02 -2.513019e-02
 9.991214e-01  3.148972e-02 -2.765371e-02
 9.987651e-01  4.062780e-02 -2.859458e-02
 9.983525e-01  5.063697e-02 -2.698318e-02
 9.979518e-01  5.997517e-02 -2.225364e-02
 9.977322e-01  6.582625e-02 -1.404701e-02
 9.957381e-01  8.949154e-02 -2.228956e-02
 9.973907e-01  7.209273e-02 -3.803670e-03
 9.990962e-01  3.628100e-02  2.214775e-02
 9.989883e-01 -2.539906e-03  4.489854e-02
 9.981075e-01 -2.692550e-02  5.528551e-02
 9.978647e-01 -3.575898e-02  5.465638e-02
 9.982400e-01 -3.494263e-02  4.791661e-02
 9.987931e-01 -2.989116e-02  3.897181e-02
 9.992623e-01 -2.380373e-02  3.013792e-02
 9.995841e-01 -1.819222e-02  2.237510e-02
 9.997793e-01 -1.362679e-02  1.599236e-02
 9.998891e-01 -1.012027e-02  1.092858e-02
 9.999472e-01 -7.527072e-03  6.993475e-03
 9.999764e-01 -5.624535e-03  3.957105e-03
 9.999899e-01 -4.209935e-03  1.598603e-03
 9.999951e-01 -3.103088e-03 -2.801167e-04
 9.999960e-01 -2.158810e-03 -1.850861e-03
 9.999939e-01 -1.254267e-03 -3.264459e-03
 9.999891e-01 -2.827666e-04 -4.655622e-03
 9.999807e-01  8.591120e-04 -6.148677e-03
 9.999665e-01  2.281581e-03 -7.860584e-03
 9.999425e-01  4.116040e-03 -9.901453e-03
 9.999022e-01  6.528291e-03 -1.236843e-02
 9.998350e-01  9.738801e-03 -1.533273e-02
 9.997245e-01  1.403593e-02 -1.881348e-02
 9.995456e-01  1.979077e-02 -2.273520e-02
 9.992615e-01  2.742877e-02 -2.690978e-02
 9.988226e-01  3.735184e-02 -3.095594e-02
 9.981709e-01  4.972591e-02 -3.438413e-02
 9.972804e-01  6.406946e-02 -3.642690e-02
 9.962473e-01  7.858731e-02 -3.626756e-02
 9.954741e-01  8.935644e-02 -3.235194e-02
 9.904913e-01  1.245009e-01 -5.853636e-02
 9.943883e-01  1.007243e-01 -3.234922e-02
 9.990937e-01  3.812163e-02  1.893295e-02
 9.975323e-01 -2.652582e-02  6.500538e-02
 9.949925e-01 -5.707303e-02  8.205249e-02
 9.950986e-01 -6.074983e-02  7.802651e-02
 9.964811e-01 -5.253157e-02  6.531335e-02
 9.978438e-01 -4.130331e-02  5.100785e-02
 9.987929e-01 -3.093858e-02  3.815058e-02
 9.993616e-01 -2.269508e-02  2.759276e-02
 9.996758e-01 -1.653956e-02  1.935708e-02
 9.998413e-01 -1.210093e-02  1.307630e-02
 9.999251e-01 -8.939342e-03  8.354605e-03
 9.999662e-01 -6.673102e-03  4.804807e-03
 9.999852e-01 -5.005023e-03  2.110165e-03
 9.999931e-01 -3.710511e-03  8.792645e-06
 9.999951e-01 -2.620561e-03 -1.710357e-03
 9.999935e-01 -1.601223e-03 -3.223030e-03
 9.999889e-01 -5.376068e-04 -4.680480e-03
 9.999804e-01  6.821777e-04 -6.219364e-03
 9.999659e-01  2.180949e-03 -7.969782e-03
 9.999410e-01  4.110152e-03 -1.005833e-02
 9.998982e-01  6.668181e-03 -1.261275e-02
 9.998246e-01  1.012851e-02 -1.575357e-02
 9.996974e-01  1.486486e-02 -1.959933e-02
 9.994775e-01  2.138085e-02 -2.424181e-02
 9.990968e-01  3.031394e-02 -2.977509e-02
 9.984446e-01  4.238311e-02 -3.622292e-02
 9.973522e-01  5.818948e-02 -4.361840e-02
 9.956319e-01  7.777184e-02 -5.165853e-02
 9.932554e-01  9.952569e-02 -5.948447e-02
 9.908417e-01  1.188125e-01 -6.415902e-02
 9.768874e-01  1.724511e-01 -1.262999e-01
 9.846053e-01  1.476081e-01 -9.361781e-02
 9.992680e-01  3.142679e-02  2.181307e-02
 9.902584e-01 -7.514753e-02  1.172227e-01
 9.854751e-01 -1.026384e-01  1.352929e-01
 9.888481e-01 -9.141528e-02  1.175697e-01
 9.933154e-01 -7.036236e-02  9.150735e-02
 9.964208e-01 -5.089960e-02  6.748909e-02
 9.981851e-01 -3.595701e-02  4.830837e-02
 9.991084e-01 -2.530217e-02  3.379558e-02
 9.995706e-01 -1.798062e-02  2.313718e-02
 9.997972e-01 -1.299407e-02  1.538549e-02
 9.999064e-01 -9.581715e-03  9.765168e-03
 9.999582e-01 -7.186936e-03  5.660566e-03
 9.999818e-01 -5.439815e-03  2.618678e-03
 9.999916e-01 -4.084291e-03  2.952513e-04
 9.999944e-01 -2.944537e-03 -1.568104e-03
 9.999932e-01 -1.886856e-03 -3.176301e-03
 9.999886e-01 -7.985707e-04 -4.698651e-03
 9.999802e-01  4.314336e-04 -6.285886e-03
 9.999655e-01  1.929388e-03 -8.082454e-03
 9.999402e-01  3.854181e-03 -1.023642e-02
 9.998960e-01  6.422515e-03 -1.291223e-02
 9.998178e-01  9.935500e-03 -1.629927e-02
 9.996770e-01  1.482378e-02 -2.064291e-02
 9.994201e-01  2.168302e-02 -2.625612e-02
 9.989434e-01  3.133972e-02 -3.361311e-02
 9.980543e-01  4.483203e-02 -4.333156e-02
 9.963931e-01  6.344173e-02 -5.635562e-02
 9.933969e-01  8.817658e-02 -7.339948e-02
 9.883546e-01  1.190409e-01 -9.478656e-02
 9.814794e-01  1.519352e-01 -1.166789e-01
 9.407743e-01  2.272367e-01 -2.516091e-01
 9.404682e-01  2.318767e-01 -2.485011e-01
 9.977982e-01 -6.302199e-03  6.602328e-02
 9.558381e-01 -1.577142e-01  2.479915e-01
 9.600469e-01 -1.539438e-01  2.336907e-01
 9.772425e-01 -1.158144e-01  1.777192e-01
 9.887548e-01 -8.011029e-02  1.262783e-01
 9.947309e-01 -5.391501e-02  8.719823e-02
 9.975737e-01 -3.619055e-02  5.947245e-02
 9.988902e-01 -2.469067e-02  4.010915e-02
 9.994918e-01 -1.731240e-02  2.676685e-02
 9.997683e-01 -1.254321e-02  1.749432e-02
 9.998955e-01 -9.374537e-03  1.100770e-02
 9.999538e-01 -7.174975e-03  6.396833e-03
 9.999799e-01 -5.556329e-03  3.050827e-03
 9.999907e-01 -4.278491e-03  5.394295e-04
 9.999939e-01 -3.186026e-03 -1.443586e-03
 9.999928e-01 -2.165390e-03 -3.129607e-03
 9.999883e-01 -1.120037e-03 -4.704203e-03
 9.999800e-01  4.919389e-05 -6.330299e-03
 9.999656e-01  1.458402e-03 -8.165462e-03
 9.999408e-01  3.259797e-03 -1.037872e-02
 9.998972e-01  5.661198e-03 -1.317147e-02
 9.998186e-01  8.960732e-03 -1.680597e-02
 9.996731e-01  1.358487e-02 -2.165847e-02
 9.993966e-01  2.015245e-02 -2.829063e-02
 9.988550e-01  2.955880e-02 -3.761648e-02
 9.977682e-01  4.306324e-02 -5.103025e-02
 9.955296e-01  6.249364e-02 -7.081988e-02
 9.909013e-01  9.015384e-02 -9.993430e-02
 9.814770e-01  1.286424e-01 -1.419648e-01
 9.640588e-01  1.780772e-01 -1.971782e-01
 8.579317e-01  2.452071e-01 -4.514718e-01
 6.854692e-01  3.164025e-01 -6.557602e-01
 3.752415e-01 -3.767801e-01  8.468947e-01
 8.286324e-01 -2.297720e-01  5.104637e-01
 9.109100e-01 -1.680414e-01  3.768355e-01
 9.613686e-01 -1.109763e-01  2.519021e-01
 9.838007e-01 -7.078238e-02  1.646996e-01
 9.931931e-01 -4.510072e-02  1.073935e-01
 9.971070e-01 -2.939594e-02  7.009585e-02
 9.987500e-01 -1.995301e-02  4.583025e-02
 9.994515e-01 -1.429135e-02  2.987353e-02
 9.997574e-01 -1.076576e-02  1.921574e-02
 9.998926e-01 -8.440137e-03  1.197834e-02
 9.999529e-01 -6.774027e-03  6.952151e-03
 9.999793e-01 -5.478734e-03  3.370296e-03
 9.999901e-01 -4.393731e-03  7.205771e-04
 9.999932e-01 -3.422917e-03 -1.345130e-03
 9.999921e-01 -2.495442e-03 -3.080409e-03
 9.999878e-01 -1.544805e-03 -4.683195e-03
 9.999799e-01 -4.959497e-04 -6.324666e-03
 9.999663e-01  7.469072e-04 -8.172260e-03
 9.999431e-01  2.310188e-03 -1.041007e-02
 9.999024e-01  4.372404e-03 -1.327295e-02
 9.998283e-01  7.180251e-03 -1.708262e-02
 9.996887e-01  1.109861e-02 -2.234519e-02
 9.994160e-01  1.663818e-02 -2.984731e-02
 9.988582e-01  2.459261e-02 -4.095739e-02
 9.976707e-01  3.608678e-02 -5.788678e-02
 9.950086e-01  5.305608e-02 -8.451621e-02
 9.888413e-01  7.813957e-02 -1.268352e-01
 9.738887e-01  1.162835e-01 -1.949844e-01
 9.379623e-01  1.723747e-01 -3.008548e-01
 7.655876e-01  1.546870e-01 -6.244578e-01
 5.144329e-01  1.905670e-01 -8.360880e-01
 1.819038e-01 -2.025643e-01  9.622259e-01
 6.600667e-01 -1.491698e-01  7.362475e-01
 8.575350e-01 -1.077005e-01  5.030252e-01
 9.469019e-01 -6.339118e-02  3.152115e-01
 9.798232e-01 -3.722096e-02  1.963698e-01
 9.921324e-01 -2.284034e-02  1.230920e-01
 9.968389e-01 -1.528610e-02  7.796444e-02
 9.986961e-01 -1.145145e-02  4.974987e-02
 9.994483e-01 -9.416346e-03  3.185111e-02
 9.997622e-01 -8.159418e-03  2.022296e-02
 9.998960e-01 -7.185734e-03  1.250050e-02
 9.999541e-01 -6.295218e-03  7.228680e-03
 9.999791e-01 -5.430734e-03  3.522040e-03
 9.999892e-01 -4.583884e-03  8.092446e-04
 9.999921e-01 -3.755706e-03 -1.285512e-03
 9.999911e-01 -2.936673e-03 -3.029382e-03
 9.999871e-01 -2.100956e-03 -4.626208e-03
 9.999797e-01 -1.203649e-03 -6.251252e-03
 9.999674e-01 -1.785106e-04 -8.076388e-03
 9.999464e-01  1.066031e-03 -1.029628e-02
 9.999098e-01  2.654502e-03 -1.316595e-02
 9.998433e-01  4.752779e-03 -1.705319e-02
 9.997170e-01  7.590177e-03 -2.254781e-02
 9.994658e-01  1.147172e-02 -3.060388e-02
 9.989368e-01  1.685885e-02 -4.290744e-02
 9.977621e-01  2.439738e-02 -6.225424e-02
 9.949589e-01  3.524723e-02 -9.388559e-02
 9.878743e-01  5.099546e-02 -1.466419e-01
 9.683633e-01  7.501704e-02 -2.380019e-01
 9.112877e-01  1.109703e-01 -3.965353e-01
 7.509398e-01  1.124813e-02 -6.602749e-01
 4.813181e-01  3.879987e-03 -8.765374e-01
 1.814932e-01  1.521817e-02  9.832744e-01
 6.181566e-01  2.279795e-02  7.857243e-01
 8.133803e-01  2.237945e-02  5.813017e-01
 9.392007e-01  2.005456e-02  3.427825e-01
 9.779950e-01  1.498834e-02  2.080894e-01
 9.916223e-01  8.911308e-03  1.288638e-01
 9.967365e-01  3.221089e-03  8.065911e-02
 9.986998e-01 -1.256090e-03  5.096267e-02
 9.994690e-01 -4.207903e-03  3.231000e-02
 9.997760e-01 -5.793503e-03  2.035497e-02
 9.999018e-01 -6.345340e-03  1.249448e-02
 9.999548e-01 -6.227771e-03  7.185637e-03
 9.999775e-01 -5.727115e-03  3.481723e-03
 9.999870e-01 -5.043270e-03  7.925042e-04
 9.999900e-01 -4.295435e-03 -1.270149e-03
 9.999893e-01 -3.541648e-03 -2.974284e-03
 9.999859e-01 -2.796428e-03 -4.523858e-03
 9.999794e-01 -2.043591e-03 -6.091991e-03
 9.999684e-01 -1.246108e-03 -7.850182e-03
 9.999500e-01 -3.517474e-04 -9.994572e-03
 9.999180e-01  7.011252e-04 -1.278771e-02
 9.998600e-01  1.980943e-03 -1.661251e-02
 9.997497e-01  3.546681e-03 -2.208798e-02
 9.995284e-01  5.453095e-03 -3.022123e-02
 9.990550e-01  7.698763e-03 -4.277738e-02
 9.979772e-01  1.029556e-02 -6.273432e-02
 9.953350e-01  1.301579e-02 -9.559680e-02
 9.884289e-01  1.582979e-02 -1.508566e-01
 9.688127e-01  1.736539e-02 -2.471850e-01
 9.094509e-01  1.664267e-02 -4.154781e-01
 7.942195e-01 -1.198965e-01 -5.956847e-01
 5.490802e-01 -1.734047e-01 -8.175829e-01
 2.689614e-01  2.332997e-01  9.344683e-01
 6.682356e-01  1.985842e-01  7.169557e-01
 8.518714e-01  1.596022e-01  4.988409e-01
 9.429658e-01  1.084305e-01  3.147353e-01
 9.780642e-01  6.979071e-02  1.962642e-01
 9.915965e-01  4.098433e-02  1.227053e-01
 9.967980e-01  2.044240e-02  7.730349e-02
 9.987784e-01  6.923279e-03  4.892685e-02
 9.995184e-01 -1.085978e-03  3.101293e-02
 9.997968e-01 -5.219194e-03  1.947104e-02
 9.999055e-01 -6.895738e-03  1.189034e-02
 9.999514e-01 -7.165155e-03  6.777333e-03
 9.999723e-01 -6.715348e-03  3.224204e-03
 9.999820e-01 -5.963259e-03  6.538093e-04
 9.999860e-01 -5.135217e-03 -1.307686e-03
 9.999863e-01 -4.339952e-03 -2.919374e-03
 9.999839e-01 -3.614417e-03 -4.376021e-03
 9.999786e-01 -2.957698e-03 -5.843156e-03
 9.999692e-01 -2.352942e-03 -7.485023e-03
 9.999534e-01 -1.780131e-03 -9.489680e-03
 9.999259e-01 -1.234286e-03 -1.211080e-02
 9.998763e-01 -7.362333e-04 -1.571201e-02
 9.997819e-01 -3.770682e-04 -2.088232e-02
 9.995925e-01 -3.311125e-04 -2.854385e-02
 9.991862e-01 -9.965482e-04 -4.032186e-02
 9.982643e-01 -2.982677e-03 -5.881723e-02
 9.960208e-01 -7.604564e-03 -8.879633e-02
 9.903313e-01 -1.663272e-02 -1.377218e-01
 9.750158e-01 -3.449856e-02 -2.194404e-01
 9.318592e-01 -6.588926e-02 -3.567870e-01
 9.154823e-01 -1.539568e-01 -3.717384e-01
 8.957522e-01 -1.583761e-01 -4.153854e-01
 6.866167e-01  3.577018e-01  6.329352e-01
 8.159141e-01  3.053503e-01  4.909638e-01
 8.945916e-01  2.421495e-01  3.755921e-01
 9.520300e-01  1.720496e-01  2.530570e-01
 9.798965e-01  1.115130e-01  1.654317e-01
 9.922320e-01  6.357679e-02  1.069279e-01
 9.971971e-01  2.964437e-02  6.869559e-02
 9.989975e-01  8.449881e-03  4.396225e-02
 9.996047e-01 -3.048821e-03  2.794816e-02
 9.998122e-01 -8.283042e-03  1.751903e-02
 9.998946e-01 -9.899480e-03  1.062232e-02
 9.999354e-01 -9.680702e-03  5.963103e-03
 9.999586e-01 -8.680942e-03  2.721017e-03
 9.999720e-01 -7.467385e-03  3.770579e-04
 9.999791e-01 -6.312021e-03 -1.409442e-03
 9.999817e-01 -5.318052e-03 -2.872875e-03
 9.999811e-01 -4.507204e-03 -4.190715e-03
 9.999773e-01 -3.868039e-03 -5.513318e-03
 9.999698e-01 -3.383937e-03 -6.990314e-03
 9.999567e-01 -3.051757e-03 -8.792822e-03
 9.999336e-01 -2.901080e-03 -1.114810e-02
 9.998921e-01 -3.013076e-03 -1.437720e-02
 9.998135e-01 -3.565966e-03 -1.898091e-02
 9.996573e-01 -4.872309e-03 -2.572119e-02
 9.993283e-01 -7.517805e-03 -3.586719e-02
 9.986038e-01 -1.240865e-02 -5.134736e-02
 9.969272e-01 -2.120122e-02 -7.540949e-02
 9.929640e-01 -3.621106e-02 -1.127443e-01
 9.834542e-01 -6.124869e-02 -1.704888e-01
 9.615843e-01 -9.975151e-02 -2.557447e-01
 9.795680e-01 -8.606337e-02 -1.817679e-01
 9.945368e-01 -1.081837e-05 -1.043869e-01
 9.526699e-01  2.431747e-01  1.824449e-01
 9.145158e-01  3.033118e-01  2.676992e-01
 9.311938e-01  2.727508e-01  2.418370e-01
 9.606275e-01  2.085460e-01  1.835847e-01
 9.822189e-01  1.359562e-01  1.294676e-01
 9.937314e-01  7.020821e-02  8.699823e-02
 9.980954e-01  2.402907e-02  5.681779e-02
 9.993348e-01 -1.827583e-03  3.642331e-02
 9.996430e-01 -1.345559e-02  2.308496e-02
 9.997550e-01 -1.683966e-02  1.436635e-02
 9.998310e-01 -1.625566e-02  8.590156e-03
 9.998892e-01 -1.413478e-02  4.675134e-03
 9.999295e-01 -1.171849e-02  1.933032e-03
 9.999545e-01 -9.538493e-03 -6.133420e-05
 9.999686e-01 -7.764245e-03 -1.590994e-03
 9.999755e-01 -6.398762e-03 -2.849117e-03
 9.999775e-01 -5.391694e-03 -3.984333e-03
 9.999759e-01 -4.682535e-03 -5.123662e-03
 9.999706e-01 -4.231177e-03 -6.394686e-03
 9.999603e-01 -4.028223e-03 -7.942203e-03
 9.999420e-01 -4.111124e-03 -9.954837e-03
 9.999090e-01 -4.577832e-03 -1.269033e-02
 9.998475e-01 -5.623253e-03 -1.653345e-02
 9.997285e-01 -7.567995e-03 -2.203802e-02
 9.994879e-01 -1.095245e-02 -3.006773e-02
 9.989891e-01 -1.654132e-02 -4.179916e-02
 9.979297e-01 -2.554176e-02 -5.902508e-02
 9.957375e-01 -3.912678e-02 -8.352241e-02
 9.914415e-01 -5.812032e-02 -1.169005e-01
 9.845244e-01 -7.982367e-02 -1.560124e-01
 9.969313e-01 -1.152872e-02 -7.742841e-02
 9.969560e-01  7.547437e-02 -1.955405e-02
 9.718848e-01  2.167542e-01  9.196537e-02
 9.456434e-01  2.881410e-01  1.507760e-01
 9.445574e-01  2.895637e-01  1.548037e-01
 9.618331e-01  2.398955e-01  1.316332e-01
 9.834935e-01  1.511587e-01  9.945667e-02
 9.962526e-01  5.484912e-02  6.687549e-02
 9.990940e-01 -5.720008e-03  4.217127e-02
 9.991848e-01 -3.072584e-02  2.618372e-02
 9.992262e-01 -3.585796e-02  1.615990e-02
 9.994296e-01 -3.229975e-02  9.856513e-03
 9.996382e-01 -2.628402e-02  5.706206e-03
 9.997876e-01 -2.040756e-02  2.871318e-03
 9.998780e-01 -1.559490e-02  8.429926e-04
 9.999284e-01 -1.194505e-02 -6.697931e-04
 9.999551e-01 -9.297016e-03 -1.860172e-03
 9.999683e-01 -7.430150e-03 -2.860034e-03
 9.999740e-01 -6.147001e-03 -3.776146e-03
 9.999749e-01 -5.302555e-03 -4.704014e-03
 9.999720e-01 -4.807561e-03 -5.742120e-03
 9.999648e-01 -4.626351e-03 -7.003575e-03
 9.999513e-01 -4.778826e-03 -8.631776e-03
 9.999272e-01 -5.341744e-03 -1.081504e-02
 9.998836e-01 -6.467888e-03 -1.381678e-02
 9.998031e-01 -8.383360e-03 -1.798584e-02
 9.996513e-01 -1.142581e-02 -2.380692e-02
 9.993658e-01 -1.595628e-02 -3.183438e-02
 9.988391e-01 -2.232149e-02 -4.268713e-02
 9.979507e-01 -3.011878e-02 -5.645515e-02
 9.966873e-01 -3.765790e-02 -7.208520e-02
 9.957556e-01 -3.744901e-02 -8.407366e-02
 9.988014e-01  4.046991e-02 -2.753252e-02
 9.929233e-01  1.184166e-01  8.986231e-03
 9.726617e-01  2.237403e-01  6.220460e-02
 9.467973e-01  3.061382e-01  9.926893e-02
 9.316634e-01  3.452250e-01  1.132389e-01
 9.430997e-01  3.146049e-01  1.076419e-01
 9.802738e-01  1.798121e-01  8.204251e-02
 9.990042e-01 -1.946474e-03  4.457378e-02
 9.964867e-01 -8.092373e-02  2.157899e-02
 9.960208e-01 -8.843727e-02  1.101722e-02
 9.972876e-01 -7.334903e-02  6.118760e-03
 9.984958e-01 -5.471556e-02  3.514452e-03
 9.992312e-01 -3.916344e-02  1.784447e-03
 9.996177e-01 -2.764281e-02  4.940329e-04
 9.998071e-01 -1.963341e-02 -5.598300e-04
 9.998982e-01 -1.419631e-02 -1.446495e-03
 9.999416e-01 -1.057949e-02 -2.216366e-03
 9.999623e-01 -8.186249e-03 -2.912369e-03
 9.999716e-01 -6.622573e-03 -3.583436e-03
 9.999750e-01 -5.628057e-03 -4.283083e-03
 9.999744e-01 -5.052139e-03 -5.076303e-03
 9.999701e-01 -4.819451e-03 -6.039837e-03
 9.999615e-01 -4.917575e-03 -7.271369e-03
 9.999460e-01 -5.379810e-03 -8.890664e-03
 9.999191e-01 -6.285501e-03 -1.105552e-02
 9.998730e-01 -7.723272e-03 -1.394369e-02
 9.997941e-01 -9.783712e-03 -1.777689e-02
 9.996660e-01 -1.237811e-02 -2.268604e-02
 9.994734e-01 -1.510326e-02 -2.872110e-02
 9.992417e-01 -1.655971e-02 -3.523789e-02
 9.990783e-01 -1.356271e-02 -4.072648e-02
 9.991726e-01  1.444354e-03 -4.064504e-02
 9.973378e-01  7.287836e-02 -2.454701e-03
 9.888014e-01  1.475777e-01  2.219508e-02
 9.662429e-01  2.516801e-01  5.506109e-02
 9.245515e-01  3.713234e-01  8.557690e-02
 8.653028e-01  4.895143e-01  1.078276e-01
 8.258916e-01  5.503456e-01  1.225677e-01
 9.151979e-01  3.912461e-01  9.663983e-02
 9.740253e-01 -2.264317e-01 -1.861610e-03
 9.663255e-01 -2.567539e-01 -1.710126e-02
 9.822420e-01 -1.870844e-01 -1.414703e-02
 9.921131e-01 -1.250552e-01 -8.532066e-03
 9.967083e-01 -8.091102e-02 -5.095163e-03
 9.986310e-01 -5.221301e-02 -3.160096e-03
 9.994189e-01 -3.400287e-02 -2.385527e-03
 9.997410e-01 -2.265305e-02 -2.197032e-03
 9.998759e-01 -1.557884e-02 -2.342173e-03
 9.999341e-01 -1.117024e-02 -2.631992e-03
 9.999602e-01 -8.398890e-03 -3.001619e-03
 9.999720e-01 -6.655957e-03 -3.417643e-03
 9.999769e-01 -5.570345e-03 -3.891291e-03
 9.999779e-01 -4.933082e-03 -4.448447e-03
 9.999761e-01 -4.631648e-03 -5.133414e-03
 9.999713e-01 -4.619527e-03 -6.001641e-03
 9.999627e-01 -4.885574e-03 -7.119563e-03
 9.999486e-01 -5.434585e-03 -8.562218e-03
 9.999265e-01 -6.236267e-03 -1.039784e-02
 9.998940e-01 -7.175398e-03 -1.266932e-02
 9.998518e-01 -7.861110e-03 -1.531328e-02
 9.998085e-01 -7.479405e-03 -1.808382e-02
 9.997869e-01 -4.101649e-03 -2.023237e-02
 9.997765e-01  5.764457e-03 -2.033969e-02
 9.994716e-01  2.853483e-02 -1.556684e-02
 9.960969e-01  8.751082e-02  1.152538e-02
 9.860379e-01  1.634222e-01  3.197593e-02
 9.567185e-01  2.844337e-01  6.154017e-02
 8.750828e-01  4.738184e-01  9.862121e-02
 6.688781e-01  7.298955e-01  1.409062e-01
 3.364309e-01  9.198151e-01  2.018771e-01