# vtk DataFile Version 2.0
Generated by vtk_extract.c
ASCII
DATASET STRUCTURED_POINTS
DIMENSIONS 32 32 32
ORIGIN 0 0 0
SPACING 1 1 1
POINT_DATA 32768
SCALARS scalar_op float 1
LOOKUP_TABLE default
 3.508007e-01
 3.506645e-01
 3.504370e-01
 3.500284e-01
 3.494352e-01
 3.488073e-01
 3.486058e-01
 3.490514e-01
 3.496653e-01
 3.501869e-01
 3.505227e-01
 3.507062e-01
 3.508013e-01
 3.508501e-01
 3.508757e-01
 3.508903e-01
 3.508994e-01
 3.509057e-01
 3.509101e-01
 3.509133e-01
 3.509156e-01
 3.509174e-01
 3.509190e-01
 3.509202e-01
 3.509207e-01
 3.509207e-01
 3.509200e-01
 3.509179e-01
 3.509169e-01
 3.509076e-01
 3.509003e-01
 3.508590e-01
 3.508569e-01
 3.507936e-01
 3.507391e-01
 3.506701e-01
 3.506160e-01
 3.505933e-01
 3.505591e-01
 3.505826e-01
 3.505998e-01
 3.506613e-01
 3.507198e-01
 3.507840e-01
 3.508271e-01
 3.508557e-01
 3.508727e-01
 3.508833e-01
 3.508901e-01
 3.508947e-01
 3.508977e-01
 3.508995e-01
 3.509004e-01
 3.509007e-01
 3.509010e-01
 3.509014e-01
 3.509023e-01
 3.509021e-01
 3.509024e-01
 3.509014e-01
 3.509032e-01
 3.509002e-01
 3.509032e-01
 3.508785e-01
 3.508948e-01
 3.508664e-01
 3.508653e-01
 3.508634e-01
 3.508824e-01
 3.508995e-01
 3.508898e-01
 3.508776e-01
 3.508439e-01
 3.508347e-01
 3.508284e-01
 3.508354e-01
 3.508496e-01
 3.508630e-01
 3.508732e-01
 3.508803e-01
 3.508850e-01
 3.508879e-01
 3.508893e-01
 3.508894e-01
 3.508884e-01
 3.508865e-01
 3.508842e-01
 3.508822e-01
 3.508810e-01
 3.508816e-01
 3.508831e-01
 3.508848e-01
 3.508913e-01
 3.508940e-01
 3.509088e-01
 3.508931e-01
 3.509331e-01
 3.509174e-01
 3.509224e-01
 3.509301e-01
 3.509403e-01
 3.509497e-01
 3.509419e-01
 3.509326e-01
 3.509079e-01
 3.508923e-01
 3.508790e-01
 3.508718e-01
 3.508694e-01
 3.508725e-01
 3.508764e-01
 3.508802e-01
 3.508828e-01
 3.508841e-01
 3.508842e-01
 3.508831e-01
 3.508809e-01
 3.508777e-01
 3.508737e-01
 3.508699e-01
 3.508677e-01
 3.508682e-01
 3.508736e-01
 3.508829e-01
 3.508949e-01
 3.509070e-01
 3.509278e-01
 3.509248e-01
 3.509339e-01
 3.509197e-01
 3.509267e-01
 3.509356e-01
 3.509412e-01
 3.509450e-01
 3.509393e-01
 3.509341e-01
 3.509194e-01
 3.509086e-01
 3.508972e-01
 3.508895e-01
 3.508838e-01
 3.508815e-01
 3.508816e-01
 3.508826e-01
 3.508834e-01
 3.508834e-01
 3.508825e-01
 3.508804e-01
 3.508771e-01
 3.508726e-01
 3.508670e-01
 3.508607e-01
 3.508544e-01
 3.508518e-01
 3.508545e-01
 3.508650e-01
 3.508792e-01
 3.508951e-01
 3.509218e-01
 3.509220e-01
 3.509452e-01
 3.509330e-01
 3.509313e-01
 3.509329e-01
 3.509253e-01
 3.509265e-01
 3.509245e-01
 3.509228e-01
 3.509155e-01
 3.509090e-01
 3.509016e-01
 3.508962e-01
 3.508918e-01
 3.508890e-01
 3.508874e-01
 3.508869e-01
 3.508863e-01
 3.508854e-01
 3.508836e-01
 3.508809e-01
 3.508771e-01
 3.508721e-01
 3.508656e-01
 3.508573e-01
 3.508481e-01
 3.508402e-01
 3.508426e-01
 3.508603e-01
 3.508828e-01
 3.509074e-01
 3.509384e-01
 3.509372e-01
 3.509056e-01
 3.509020e-01
 3.509105e-01
 3.509173e-01
 3.509097e-01
 3.509103e-01
 3.509073e-01
 3.509083e-01
 3.509036e-01
 3.509009e-01
 3.508983e-01
 3.508967e-01
 3.508953e-01
 3.508943e-01
 3.508933e-01
 3.508923e-01
 3.508911e-01
 3.508895e-01
 3.508870e-01
 3.508837e-01
 3.508794e-01
 3.508740e-01
 3.508672e-01
 3.508591e-01
 3.508494e-01
 3.508418e-01
 3.508390e-01
 3.508478e-01
 3.508682e-01
 3.508895e-01
 3.509125e-01
 3.509069e-01
 3.508297e-01
 3.508260e-01
 3.508553e-01
 3.508731e-01
 3.508820e-01
 3.508800e-01
 3.508815e-01
 3.508813e-01
 3.508819e-01
 3.508868e-01
 3.508908e-01
 3.508948e-01
 3.508974e-01
 3.508989e-01
 3.508993e-01
 3.508988e-01
 3.508975e-01
 3.508955e-01
 3.508927e-01
 3.508889e-01
 3.508842e-01
 3.508783e-01
 3.508713e-01
 3.508630e-01
 3.508549e-01
 3.508471e-01
 3.508449e-01
 3.508464e-01
 3.508529e-01
 3.508591e-01
 3.508685e-01
 3.508347e-01
 3.505870e-01
 3.505758e-01
 3.506043e-01
 3.506859e-01
 3.507495e-01
 3.508032e-01
 3.508230e-01
 3.508377e-01
 3.508564e-01
 3.508716e-01
 3.508847e-01
 3.508947e-01
 3.509012e-01
 3.509048e-01
 3.509064e-01
 3.509063e-01
 3.509052e-01
 3.509031e-01
 3.509003e-01
 3.508966e-01
 3.508920e-01
 3.508866e-01
 3.508805e-01
 3.508741e-01
 3.508676e-01
 3.508616e-01
 3.508528e-01
 3.508394e-01
 3.508236e-01
 3.507916e-01
 3.507572e-01
 3.506728e-01
 3.498713e-01
 3.495166e-01
 3.494663e-01
 3.498058e-01
 3.502629e-01
 3.505355e-01
 3.506745e-01
 3.507694e-01
 3.508220e-01
 3.508588e-01
 3.508838e-01
 3.508995e-01
 3.509085e-01
 3.509133e-01
 3.509151e-01
 3.509152e-01
 3.509140e-01
 3.509120e-01
 3.509093e-01
 3.509059e-01
 3.509019e-01
 3.508976e-01
 3.508934e-01
 3.508892e-01
 3.508851e-01
 3.508770e-01
 3.508643e-01
 3.508349e-01
 3.507841e-01
 3.506775e-01
 3.505158e-01
 3.502488e-01
 3.476669e-01
 3.452946e-01
 3.440126e-01
 3.463323e-01
 3.486305e-01
 3.498400e-01
 3.504102e-01
 3.506636e-01
 3.507909e-01
 3.508587e-01
 3.508944e-01
 3.509124e-01
 3.509213e-01
 3.509249e-01
 3.509259e-01
 3.509254e-01
 3.509242e-01
 3.509225e-01
 3.509206e-01
 3.509186e-01
 3.509167e-01
 3.509149e-01
 3.509133e-01
 3.509112e-01
 3.509072e-01
 3.508982e-01
 3.508784e-01
 3.508318e-01
 3.507335e-01
 3.505076e-01
 3.500772e-01
 3.492051e-01
 3.408722e-01
 3.285560e-01
 3.188216e-01
 3.330106e-01
 3.437155e-01
 3.482486e-01
 3.498290e-01
 3.504668e-01
 3.507396e-01
 3.508566e-01
 3.509083e-01
 3.509296e-01
 3.509373e-01
 3.509389e-01
 3.509383e-01
 3.509368e-01
 3.509353e-01
 3.509340e-01
 3.509330e-01
 3.509324e-01
 3.509324e-01
 3.509329e-01
 3.509337e-01
 3.509338e-01
 3.509314e-01
 3.509214e-01
 3.508941e-01
 3.508207e-01
 3.506555e-01
 3.502281e-01
 3.492533e-01
 3.468341e-01
 3.259145e-01
 2.768759e-01
 2.208364e-01
 2.983587e-01
 3.342499e-01
 3.453623e-01
 3.489269e-01
 3.502040e-01
 3.506726e-01
 3.508479e-01
 3.509175e-01
 3.509422e-01
 3.509499e-01
 3.509508e-01
 3.509495e-01
 3.509478e-01
 3.509463e-01
 3.509455e-01
 3.509455e-01
 3.509462e-01
 3.509476e-01
 3.509497e-01
 3.509517e-01
 3.509525e-01
 3.509497e-01
 3.509360e-01
 3.508988e-01
 3.507954e-01
 3.505396e-01
 3.498265e-01
 3.479575e-01
 3.424046e-01
 3.103588e-01
 2.440102e-01
 1.310142e-01
 2.688415e-01
 3.247885e-01
 3.420929e-01
 3.478892e-01
 3.498876e-01
 3.505841e-01
 3.508313e-01
 3.509201e-01
 3.509499e-01
 3.509589e-01
 3.509599e-01
 3.509586e-01
 3.509570e-01
 3.509558e-01
 3.509555e-01
 3.509562e-01
 3.509577e-01
 3.509599e-01
 3.509624e-01
 3.509648e-01
 3.509658e-01
 3.509630e-01
 3.509497e-01
 3.509073e-01
 3.507845e-01
 3.504275e-01
 3.493112e-01
 3.460752e-01
 3.365204e-01
 3.236000e-01
 2.783360e-01
 2.331366e-01
 2.967401e-01
 3.230497e-01
 3.399573e-01
 3.471539e-01
 3.497018e-01
 3.505429e-01
 3.508252e-01
 3.509190e-01
 3.509509e-01
 3.509608e-01
 3.509629e-01
 3.509628e-01
 3.509621e-01
 3.509620e-01
 3.509625e-01
 3.509638e-01
 3.509659e-01
 3.509684e-01
 3.509711e-01
 3.509731e-01
 3.509734e-01
 3.509696e-01
 3.509545e-01
 3.509098e-01
 3.507674e-01
 3.503345e-01
 3.489471e-01
 3.448383e-01
 3.348541e-01
 3.263395e-01
 2.844835e-01
 2.568272e-01
 3.100432e-01
 3.325927e-01
 3.398591e-01
 3.469333e-01
 3.496153e-01
 3.505390e-01
 3.508227e-01
 3.509169e-01
 3.509461e-01
 3.509559e-01
 3.509596e-01
 3.509613e-01
 3.509627e-01
 3.509640e-01
 3.509656e-01
 3.509677e-01
 3.509702e-01
 3.509730e-01
 3.509755e-01
 3.509773e-01
 3.509771e-01
 3.509724e-01
 3.509568e-01
 3.509098e-01
 3.507674e-01
 3.503350e-01
 3.489337e-01
 3.448150e-01
 3.350321e-01
 3.159247e-01
 2.520353e-01
 2.277373e-01
 3.026249e-01
 3.251000e-01
 3.401323e-01
 3.470247e-01
 3.496079e-01
 3.504961e-01
 3.507997e-01
 3.508983e-01
 3.509307e-01
 3.509435e-01
 3.509501e-01
 3.509552e-01
 3.509589e-01
 3.509620e-01
 3.509650e-01
 3.509679e-01
 3.509709e-01
 3.509737e-01
 3.509761e-01
 3.509775e-01
 3.509767e-01
 3.509715e-01
 3.509548e-01
 3.509104e-01
 3.507841e-01
 3.504208e-01
 3.492308e-01
 3.456512e-01
 3.351502e-01
 3.076186e-01
 2.049134e-01
 1.682538e-01
 2.893123e-01
 3.290567e-01
 3.423836e-01
 3.475295e-01
 3.495888e-01
 3.504140e-01
 3.507309e-01
 3.508509e-01
 3.508993e-01
 3.509221e-01
 3.509363e-01
 3.509456e-01
 3.509523e-01
 3.509578e-01
 3.509622e-01
 3.509660e-01
 3.509694e-01
 3.509722e-01
 3.509742e-01
 3.509750e-01
 3.509737e-01
 3.509678e-01
 3.509511e-01
 3.509089e-01
 3.507985e-01
 3.504968e-01
 3.496240e-01
 3.470034e-01
 3.380205e-01
 3.267672e-01
 2.849345e-01
 2.717960e-01
 3.188071e-01
 3.383320e-01
 3.451786e-01
 3.477966e-01
 3.492412e-01
 3.500840e-01
 3.505173e-01
 3.507378e-01
 3.508392e-01
 3.508916e-01
 3.509185e-01
 3.509341e-01
 3.509453e-01
 3.509532e-01
 3.509593e-01
 3.509641e-01
 3.509679e-01
 3.509705e-01
 3.509720e-01
 3.509720e-01
 3.509696e-01
 3.509630e-01
 3.509472e-01
 3.509123e-01
 3.508250e-01
 3.506178e-01
 3.500458e-01
 3.483778e-01
 3.432657e-01
 3.419119e-01
 3.322942e-01
 3.304455e-01
 3.396554e-01
 3.443584e-01
 3.449701e-01
 3.447331e-01
 3.464109e-01
 3.485348e-01
 3.498515e-01
 3.504716e-01
 3.507361e-01
 3.508481e-01
 3.508973e-01
 3.509251e-01
 3.509407e-01
 3.509514e-01
 3.509590e-01
 3.509647e-01
 3.509687e-01
 3.509711e-01
 3.509719e-01
 3.509709e-01
 3.509673e-01
 3.509590e-01
 3.509421e-01
 3.509069e-01
 3.508344e-01
 3.506849e-01
 3.503322e-01
 3.495367e-01
 3.474836e-01
 3.477804e-01
 3.454382e-01
 3.447202e-01
 3.456088e-01
 3.432483e-01
 3.333238e-01
 3.199241e-01
 3.305830e-01
 3.424433e-01
 3.479318e-01
 3.498778e-01
 3.505355e-01
 3.507766e-01
 3.508754e-01
 3.509193e-01
 3.509412e-01
 3.509548e-01
 3.509636e-01
 3.509695e-01
 3.509731e-01
 3.509748e-01
 3.509745e-01
 3.509722e-01
 3.509669e-01
 3.509572e-01
 3.509396e-01
 3.509099e-01
 3.508581e-01
 3.507671e-01
 3.506044e-01
 3.502889e-01
 3.494741e-01
 3.494020e-01
 3.480187e-01
 3.462846e-01
 3.428017e-01
 3.316045e-01
 2.894890e-01
 1.740727e-01
 2.599796e-01
 3.243435e-01
 3.433079e-01
 3.485820e-01
 3.501628e-01
 3.506877e-01
 3.508595e-01
 3.509239e-01
 3.509520e-01
 3.509667e-01
 3.509751e-01
 3.509799e-01
 3.509821e-01
 3.509826e-01
 3.509813e-01
 3.509782e-01
 3.509727e-01
 3.509635e-01
 3.509489e-01
 3.509270e-01
 3.508933e-01
 3.508487e-01
 3.507752e-01
 3.506112e-01
 3.502027e-01
 3.496715e-01
 3.477935e-01
 3.436865e-01
 3.367937e-01
 3.413889e-01
 3.303238e-01
 2.449490e-05
 3.100565e-01
 3.278846e-01
 3.365425e-01
 3.461586e-01
 3.494915e-01
 3.505316e-01
 3.508349e-01
 3.509380e-01
 3.509732e-01
 3.509875e-01
 3.509932e-01
 3.509951e-01
 3.509949e-01
 3.509935e-01
 3.509912e-01
 3.509880e-01
 3.509837e-01
 3.509777e-01
 3.509694e-01
 3.509584e-01
 3.509446e-01
 3.509261e-01
 3.508789e-01
 3.507597e-01
 3.504455e-01
 3.496982e-01
 3.474466e-01
 3.432451e-01
 3.552661e-01
 2.449490e-05
 2.449490e-05
 2.449490e-05
 2.449490e-05
 2.449490e-05
 3.451534e-01
 3.454188e-01
 3.489174e-01
 3.503412e-01
 3.508018e-01
 3.509489e-01
 3.509962e-01
 3.510105e-01
 3.510132e-01
 3.510116e-01
 3.510085e-01
 3.510051e-01
 3.510020e-01
 3.509994e-01
 3.509973e-01
 3.509958e-01
 3.509948e-01
 3.509944e-01
 3.509935e-01
 3.509840e-01
 3.509495e-01
 3.508431e-01
 3.505378e-01
 3.499073e-01
 3.491619e-01
 3.575409e-01
 2.449490e-05
 2.449490e-05
 2.449490e-05
 2.449490e-05
 2.449490e-05
 2.449490e-05
 3.616840e-01
 3.472374e-01
 3.489659e-01
 3.502760e-01
 3.507849e-01
 3.509580e-01
 3.510145e-01
 3.510295e-01
 3.510298e-01
 3.510252e-01
 3.510196e-01
 3.510147e-01
 3.510112e-01
 3.510096e-01
 3.510100e-01
 3.510128e-01
 3.510180e-01
 3.510250e-01
 3.510307e-01
 3.510284e-01
 3.510013e-01
 3.509031e-01
 3.506245e-01
 3.500610e-01
 3.499969e-01
 3.624251e-01
 2.449490e-05
 2.449490e-05
 2.449490e-05
 2.449490e-05
 2.449490e-05
 2.449490e-05
 2.449490e-05
 3.593508e-01
 3.502833e-01
 3.504007e-01
 3.507957e-01
 3.509648e-01
 3.510234e-01
 3.510388e-01
 3.510378e-01
 3.510317e-01
 3.510249e-01
 3.510194e-01
 3.510161e-01
 3.510156e-01
 3.510181e-01
 3.510240e-01
 3.510329e-01
 3.510436e-01
 3.510533e-01
 3.510551e-01
 3.510327e-01
 3.509378e-01
 3.506793e-01
 3.500642e-01
 3.499101e-01
 3.618194e-01
 2.449490e-05
 2.449490e-05
 2.449490e-05
 2.449490e-05
 2.449490e-05
 2.449490e-05
 2.449490e-05
 3.588668e-01
 3.502576e-01
 3.504019e-01
 3.507970e-01
 3.509613e-01
 3.510200e-01
 3.510353e-01
 3.510346e-01
 3.510287e-01
 3.510223e-01
 3.510174e-01
 3.510149e-01
 3.510154e-01
 3.510192e-01
 3.510261e-01
 3.510360e-01
 3.510476e-01
 3.510583e-01
 3.510608e-01
 3.510397e-01
 3.509466e-01
 3.506888e-01
 3.499539e-01
 3.489907e-01
 3.557773e-01
 2.449490e-05
 2.449490e-05
 2.449490e-05
 2.449490e-05
 2.449490e-05
 2.449490e-05
 3.588344e-01
 3.468219e-01
 3.489444e-01
 3.502875e-01
 3.507818e-01
 3.509501e-01
 3.510056e-01
 3.510201e-01
 3.510206e-01
 3.510164e-01
 3.510118e-01
 3.510084e-01
 3.510070e-01
 3.510083e-01
 3.510122e-01
 3.510189e-01
 3.510276e-01
 3.510378e-01
 3.510458e-01
 3.510472e-01
 3.510232e-01
 3.509348e-01
 3.506693e-01
 3.499251e-01
 3.476313e-01
 3.419567e-01
 3.488384e-01
 2.449490e-05
 2.449490e-05
 2.449490e-05
 2.449490e-05
 3.520721e-01
 3.376582e-01
 3.452285e-01
 3.490396e-01
 3.503546e-01
 3.507875e-01
 3.509314e-01
 3.509788e-01
 3.509940e-01
 3.509971e-01
 3.509963e-01
 3.509944e-01
 3.509932e-01
 3.509933e-01
 3.509950e-01
 3.509986e-01
 3.510038e-01
 3.510103e-01
 3.510169e-01
 3.510213e-01
 3.510186e-01
 3.509946e-01
 3.509136e-01
 3.506689e-01
 3.502659e-01
 3.487837e-01
 3.446040e-01
 3.347779e-01
 3.242208e-01
 2.801801e-01
 2.471250e-01
 3.064722e-01
 3.251274e-01
 3.403416e-01
 3.472978e-01
 3.497600e-01
 3.505619e-01
 3.508262e-01
 3.509186e-01
 3.509527e-01
 3.509656e-01
 3.509708e-01
 3.509726e-01
 3.509735e-01
 3.509742e-01
 3.509754e-01
 3.509775e-01
 3.509803e-01
 3.509841e-01
 3.509879e-01
 3.509918e-01
 3.509921e-01
 3.509891e-01
 3.509673e-01
 3.509131e-01
 3.507453e-01
 3.505432e-01
 3.498499e-01
 3.480326e-01
 3.428572e-01
 3.279165e-01
 2.883237e-01
 2.630092e-01
 3.116001e-01
 3.371302e-01
 3.460803e-01
 3.491870e-01
 3.502883e-01
 3.506868e-01
 3.508366e-01
 3.508959e-01
 3.509230e-01
 3.509366e-01
 3.509439e-01
 3.509484e-01
 3.509513e-01
 3.509536e-01
 3.509557e-01
 3.509577e-01
 3.509600e-01
 3.509621e-01
 3.509639e-01
 3.509647e-01
 3.509627e-01
 3.509574e-01
 3.509380e-01
 3.509003e-01
 3.507905e-01
 3.507071e-01
 3.503967e-01
 3.497275e-01
 3.480423e-01
 3.444716e-01
 3.388111e-01
 3.365641e-01
 3.416036e-01
 3.463884e-01
 3.490086e-01
 3.501011e-01
 3.505669e-01
 3.507590e-01
 3.508441e-01
 3.508828e-01
 3.509028e-01
 3.509145e-01
 3.509221e-01
 3.509271e-01
 3.509308e-01
 3.509335e-01
 3.509358e-01
 3.509378e-01
 3.509393e-01
 3.509406e-01
 3.509408e-01
 3.509409e-01
 3.509376e-01
 3.509344e-01
 3.509190e-01
 3.508974e-01
 3.508289e-01
 3.507967e-01
 3.506466e-01
 3.503937e-01
 3.499403e-01
 3.493242e-01
 3.487029e-01
 3.485015e-01
 3.490047e-01
 3.496671e-01
 3.502117e-01
 3.505239e-01
 3.506953e-01
 3.507921e-01
 3.508437e-01
 3.508730e-01
 3.508892e-01
 3.508991e-01
 3.509058e-01
 3.509109e-01
 3.509151e-01
 3.509186e-01
 3.509215e-01
 3.509239e-01
 3.509257e-01
 3.509271e-01
 3.509276e-01
 3.509280e-01
 3.509268e-01
 3.509256e-01
 3.509174e-01
 3.509053e-01
 3.508644e-01
 3.508550e-01
 3.507898e-01
 3.507247e-01
 3.506508e-01
 3.505982e-01
 3.505721e-01
 3.505527e-01
 3.505755e-01
 3.506141e-01
 3.506787e-01
 3.507376e-01
 3.507875e-01
 3.508230e-01
 3.508505e-01
 3.508683e-01
 3.508805e-01
 3.508884e-01
 3.508938e-01
 3.508977e-01
 3.509007e-01
 3.509031e-01
 3.509052e-01
 3.509071e-01
 3.509088e-01
 3.509103e-01
 3.509115e-01
 3.509131e-01
 3.509138e-01
 3.509165e-01
 3.509132e-01
 3.509116e-01
 3.508851e-01
 3.508991e-01
 3.508766e-01
 3.508717e-01
 3.508713e-01
 3.508863e-01
 3.509078e-01
 3.509002e-01
 3.508883e-01
 3.508538e-01
 3.508438e-01
 3.508370e-01
 3.508423e-01
 3.508501e-01
 3.508598e-01
 3.508690e-01
 3.508764e-01
 3.508819e-01
 3.508857e-01
 3.508881e-01
 3.508895e-01
 3.508903e-01
 3.508907e-01
 3.508912e-01
 3.508920e-01
 3.508938e-01
 3.508959e-01
 3.508994e-01
 3.509035e-01
 3.509099e-01
 3.509139e-01
 3.509192e-01
 3.509077e-01
 3.509408e-01
 3.509344e-01
 3.509394e-01
 3.509454e-01
 3.509580e-01
 3.509660e-01
 3.509561e-01
 3.509434e-01
 3.509160e-01
 3.508978e-01
 3.508832e-01
 3.508748e-01
 3.508711e-01
 3.508713e-01
 3.508733e-01
 3.508762e-01
 3.508789e-01
 3.508809e-01
 3.508819e-01
 3.508822e-01
 3.508818e-01
 3.508811e-01
 3.508805e-01
 3.508809e-01
 3.508829e-01
 3.508873e-01
 3.508945e-01
 3.509029e-01
 3.509148e-01
 3.509247e-01
 3.509375e-01
 3.509357e-01
 3.509574e-01
 3.509565e-01
 3.509583e-01
 3.509624e-01
 3.509652e-01
 3.509645e-01
 3.509545e-01
 3.509438e-01
 3.509266e-01
 3.509131e-01
 3.509003e-01
 3.508914e-01
 3.508844e-01
 3.508806e-01
 3.508789e-01
 3.508786e-01
 3.508790e-01
 3.508793e-01
 3.508791e-01
 3.508782e-01
 3.508767e-01
 3.508747e-01
 3.508725e-01
 3.508708e-01
 3.508713e-01
 3.508746e-01
 3.508825e-01
 3.508929e-01
 3.509080e-01
 3.509243e-01
 3.509427e-01
 3.509484e-01
 3.509726e-01
 3.509744e-01
 3.509729e-01
 3.509693e-01
 3.509613e-01
 3.509518e-01
 3.509401e-01
 3.509330e-01
 3.509222e-01
 3.509143e-01
 3.509053e-01
 3.508981e-01
 3.508919e-01
 3.508874e-01
 3.508844e-01
 3.508825e-01
 3.508814e-01
 3.508804e-01
 3.508792e-01
 3.508775e-01
 3.508753e-01
 3.508723e-01
 3.508689e-01
 3.508657e-01
 3.508640e-01
 3.508675e-01
 3.508785e-01
 3.508929e-01
 3.509132e-01
 3.509338e-01
 3.509548e-01
 3.509641e-01
 3.509593e-01
 3.509624e-01
 3.509649e-01
 3.509603e-01
 3.509520e-01
 3.509376e-01
 3.509277e-01
 3.509205e-01
 3.509146e-01
 3.509093e-01
 3.509038e-01
 3.508992e-01
 3.508951e-01
 3.508918e-01
 3.508892e-01
 3.508871e-01
 3.508854e-01
 3.508836e-01
 3.508816e-01
 3.508793e-01
 3.508764e-01
 3.508730e-01
 3.508693e-01
 3.508656e-01
 3.508638e-01
 3.508649e-01
 3.508728e-01
 3.508859e-01
 3.509052e-01
 3.509234e-01
 3.509447e-01
 3.509480e-01
 3.509155e-01
 3.509343e-01
 3.509382e-01
 3.509420e-01
 3.509320e-01
 3.509222e-01
 3.509112e-01
 3.509064e-01
 3.509020e-01
 3.508998e-01
 3.508981e-01
 3.508974e-01
 3.508963e-01
 3.508952e-01
 3.508939e-01
 3.508924e-01
 3.508906e-01
 3.508886e-01
 3.508861e-01
 3.508832e-01
 3.508799e-01
 3.508761e-01
 3.508721e-01
 3.508688e-01
 3.508667e-01
 3.508678e-01
 3.508730e-01
 3.508810e-01
 3.508952e-01
 3.509053e-01
 3.509149e-01
 3.509130e-01
 3.508050e-01
 3.508109e-01
 3.508353e-01
 3.508456e-01
 3.508715e-01
 3.508754e-01
 3.508834e-01
 3.508838e-01
 3.508854e-01
 3.508885e-01
 3.508927e-01
 3.508958e-01
 3.508983e-01
 3.508994e-01
 3.508994e-01
 3.508986e-01
 3.508971e-01
 3.508951e-01
 3.508926e-01
 3.508897e-01
 3.508864e-01
 3.508830e-01
 3.508797e-01
 3.508767e-01
 3.508749e-01
 3.508727e-01
 3.508724e-01
 3.508716e-01
 3.508741e-01
 3.508690e-01
 3.508587e-01
 3.508203e-01
 3.505112e-01
 3.504456e-01
 3.504458e-01
 3.505650e-01
 3.506748e-01
 3.507589e-01
 3.508119e-01
 3.508376e-01
 3.508604e-01
 3.508769e-01
 3.508888e-01
 3.508976e-01
 3.509029e-01
 3.509056e-01
 3.509064e-01
 3.509060e-01
 3.509047e-01
 3.509028e-01
 3.509005e-01
 3.508979e-01
 3.508952e-01
 3.508925e-01
 3.508902e-01
 3.508880e-01
 3.508851e-01
 3.508807e-01
 3.508734e-01
 3.508593e-01
 3.508389e-01
 3.507959e-01
 3.507463e-01
 3.506259e-01
 3.497240e-01
 3.492218e-01
 3.491337e-01
 3.495182e-01
 3.501125e-01
 3.504736e-01
 3.506690e-01
 3.507702e-01
 3.508368e-01
 3.508709e-01
 3.508942e-01
 3.509061e-01
 3.509124e-01
 3.509150e-01
 3.509155e-01
 3.509149e-01
 3.509137e-01
 3.509122e-01
 3.509106e-01
 3.509091e-01
 3.509077e-01
 3.509065e-01
 3.509052e-01
 3.509031e-01
 3.508996e-01
 3.508920e-01
 3.508780e-01
 3.508464e-01
 3.507926e-01
 3.506830e-01
 3.505145e-01
 3.502146e-01
 3.476088e-01
 3.449508e-01
 3.436879e-01
 3.461912e-01
 3.485430e-01
 3.497688e-01
 3.503652e-01
 3.506485e-01
 3.507886e-01
 3.508636e-01
 3.509000e-01
 3.509168e-01
 3.509239e-01
 3.509259e-01
 3.509256e-01
 3.509245e-01
 3.509233e-01
 3.509222e-01
 3.509214e-01
 3.509210e-01
 3.509209e-01
 3.509209e-01
 3.509207e-01
 3.509193e-01
 3.509155e-01
 3.509051e-01
 3.508828e-01
 3.508329e-01
 3.507308e-01
 3.505124e-01
 3.501030e-01
 3.492135e-01
 3.423266e-01
 3.322775e-01
 3.266364e-01
 3.371369e-01
 3.451629e-01
 3.486366e-01
 3.499943e-01
 3.505117e-01
 3.507577e-01
 3.508603e-01
 3.509062e-01
 3.509256e-01
 3.509328e-01
 3.509344e-01
 3.509340e-01
 3.509330e-01
 3.509322e-01
 3.509318e-01
 3.509318e-01
 3.509323e-01
 3.509329e-01
 3.509335e-01
 3.509335e-01
 3.509318e-01
 3.509262e-01
 3.509129e-01
 3.508845e-01
 3.508193e-01
 3.506806e-01
 3.503346e-01
 3.495365e-01
 3.474637e-01
 3.342329e-01
 3.079358e-01
 2.902913e-01
 3.223869e-01
 3.405638e-01
 3.472625e-01
 3.495281e-01
 3.503796e-01
 3.507111e-01
 3.508468e-01
 3.509059e-01
 3.509288e-01
 3.509374e-01
 3.509396e-01
 3.509397e-01
 3.509394e-01
 3.509394e-01
 3.509398e-01
 3.509405e-01
 3.509414e-01
 3.509423e-01
 3.509430e-01
 3.509429e-01
 3.509408e-01
 3.509352e-01
 3.509209e-01
 3.508899e-01
 3.508115e-01
 3.506178e-01
 3.501109e-01
 3.487727e-01
 3.449817e-01
 3.287828e-01
 2.915531e-01
 2.653778e-01
 3.116838e-01
 3.368680e-01
 3.459796e-01
 3.491455e-01
 3.502852e-01
 3.507043e-01
 3.508543e-01
 3.509104e-01
 3.509301e-01
 3.509371e-01
 3.509396e-01
 3.509410e-01
 3.509424e-01
 3.509438e-01
 3.509452e-01
 3.509466e-01
 3.509479e-01
 3.509490e-01
 3.509493e-01
 3.509485e-01
 3.509455e-01
 3.509384e-01
 3.509228e-01
 3.508868e-01
 3.507952e-01
 3.505703e-01
 3.499239e-01
 3.481822e-01
 3.431229e-01
 3.272259e-01
 2.863643e-01
 2.600060e-01
 3.101512e-01
 3.357419e-01
 3.454781e-01
 3.489596e-01
 3.502265e-01
 3.506956e-01
 3.508577e-01
 3.509100e-01
 3.509251e-01
 3.509309e-01
 3.509345e-01
 3.509385e-01
 3.509420e-01
 3.509452e-01
 3.509478e-01
 3.509500e-01
 3.509517e-01
 3.509529e-01
 3.509531e-01
 3.509519e-01
 3.509482e-01
 3.509406e-01
 3.509239e-01
 3.508874e-01
 3.507976e-01
 3.505654e-01
 3.499199e-01
 3.481114e-01
 3.427895e-01
 3.286130e-01
 2.921258e-01
 2.731736e-01
 3.155913e-01
 3.375828e-01
 3.459646e-01
 3.490630e-01
 3.502442e-01
 3.506870e-01
 3.508392e-01
 3.508909e-01
 3.509073e-01
 3.509169e-01
 3.509256e-01
 3.509331e-01
 3.509392e-01
 3.509440e-01
 3.509478e-01
 3.509509e-01
 3.509531e-01
 3.509546e-01
 3.509548e-01
 3.509533e-01
 3.509494e-01
 3.509413e-01
 3.509251e-01
 3.508923e-01
 3.508123e-01
 3.506125e-01
 3.500465e-01
 3.484984e-01
 3.437039e-01
 3.360432e-01
 3.148843e-01
 3.032072e-01
 3.276634e-01
 3.414663e-01
 3.470957e-01
 3.492622e-01
 3.502037e-01
 3.506056e-01
 3.507670e-01
 3.508373e-01
 3.508721e-01
 3.508977e-01
 3.509145e-01
 3.509267e-01
 3.509352e-01
 3.509415e-01
 3.509466e-01
 3.509505e-01
 3.509534e-01
 3.509551e-01
 3.509555e-01
 3.509540e-01
 3.509499e-01
 3.509416e-01
 3.509248e-01
 3.508920e-01
 3.508171e-01
 3.506591e-01
 3.502517e-01
 3.491376e-01
 3.458219e-01
 3.438142e-01
 3.360890e-01
 3.328813e-01
 3.400445e-01
 3.452710e-01
 3.477599e-01
 3.489519e-01
 3.497369e-01
 3.502680e-01
 3.505519e-01
 3.507226e-01
 3.508191e-01
 3.508728e-01
 3.509021e-01
 3.509196e-01
 3.509308e-01
 3.509394e-01
 3.509458e-01
 3.509508e-01
 3.509542e-01
 3.509562e-01
 3.509566e-01
 3.509551e-01
 3.509511e-01
 3.509431e-01
 3.509277e-01
 3.508985e-01
 3.508387e-01
 3.507195e-01
 3.504283e-01
 3.498044e-01
 3.481445e-01
 3.480956e-01
 3.458743e-01
 3.448269e-01
 3.459522e-01
 3.463028e-01
 3.455747e-01
 3.451452e-01
 3.467984e-01
 3.486797e-01
 3.498625e-01
 3.504676e-01
 3.507218e-01
 3.508363e-01
 3.508863e-01
 3.509126e-01
 3.509287e-01
 3.509398e-01
 3.509478e-01
 3.509538e-01
 3.509577e-01
 3.509598e-01
 3.509600e-01
 3.509581e-01
 3.509533e-01
 3.509443e-01
 3.509273e-01
 3.508984e-01
 3.508470e-01
 3.507584e-01
 3.506015e-01
 3.503209e-01
 3.496201e-01
 3.496427e-01
 3.486453e-01
 3.477455e-01
 3.462332e-01
 3.412974e-01
 3.290229e-01
 3.176617e-01
 3.308479e-01
 3.425874e-01
 3.479415e-01
 3.498589e-01
 3.505238e-01
 3.507680e-01
 3.508632e-01
 3.509078e-01
 3.509309e-01
 3.509452e-01
 3.509548e-01
 3.509611e-01
 3.509648e-01
 3.509664e-01
 3.509661e-01
 3.509635e-01
 3.509583e-01
 3.509494e-01
 3.509350e-01
 3.509143e-01
 3.508816e-01
 3.508422e-01
 3.507709e-01
 3.506373e-01
 3.502804e-01
 3.500225e-01
 3.489305e-01
 3.467007e-01
 3.414299e-01
 3.255681e-01
 2.722181e-01
 1.505165e-01
 2.648951e-01
 3.258067e-01
 3.432551e-01
 3.484971e-01
 3.501278e-01
 3.506613e-01
 3.508432e-01
 3.509123e-01
 3.509429e-01
 3.509594e-01
 3.509686e-01
 3.509740e-01
 3.509766e-01
 3.509771e-01
 3.509760e-01
 3.509733e-01
 3.509687e-01
 3.509618e-01
 3.509520e-01
 3.509391e-01
 3.509231e-01
 3.509033e-01
 3.508595e-01
 3.507613e-01
 3.505232e-01
 3.499041e-01
 3.480053e-01
 3.433038e-01
 3.346691e-01
 3.372471e-01
 2.449490e-05
 2.449490e-05
 3.179159e-01
 3.340920e-01
 3.371500e-01
 3.458892e-01
 3.493625e-01
 3.504783e-01
 3.508162e-01
 3.509266e-01
 3.509667e-01
 3.509826e-01
 3.509894e-01
 3.509918e-01
 3.509919e-01
 3.509907e-01
 3.509889e-01
 3.509866e-01
 3.509838e-01
 3.509809e-01
 3.509773e-01
 3.509741e-01
 3.509686e-01
 3.509575e-01
 3.509205e-01
 3.508351e-01
 3.505741e-01
 3.497817e-01
 3.475123e-01
 3.431316e-01
 3.572395e-01
 2.449490e-05
 2.449490e-05
 2.449490e-05
 2.449490e-05
 2.449490e-05
 3.513874e-01
 3.451346e-01
 3.487967e-01
 3.502980e-01
 3.507845e-01
 3.509422e-01
 3.509924e-01
 3.510087e-01
 3.510119e-01
 3.510107e-01
 3.510078e-01
 3.510047e-01
 3.510022e-01
 3.510007e-01
 3.510004e-01
 3.510016e-01
 3.510043e-01
 3.510076e-01
 3.510084e-01
 3.510014e-01
 3.509711e-01
 3.508780e-01
 3.505976e-01
 3.500085e-01
 3.494419e-01
 3.590158e-01
 2.449490e-05
 2.449490e-05
 2.449490e-05
 2.449490e-05
 2.449490e-05
 2.449490e-05
 2.449490e-05
 3.561923e-01
 3.497478e-01
 3.503115e-01
 3.507731e-01
 3.509524e-01
 3.510124e-01
 3.510296e-01
 3.510305e-01
 3.510261e-01
 3.510207e-01
 3.510161e-01
 3.510133e-01
 3.510127e-01
 3.510147e-01
 3.510194e-01
 3.510264e-01
 3.510346e-01
 3.510408e-01
 3.510394e-01
 3.510145e-01
 3.509227e-01
 3.506589e-01
 3.501044e-01
 3.502003e-01
 3.633563e-01
 2.449490e-05
 2.449490e-05
 2.449490e-05
 2.449490e-05
 2.449490e-05
 2.449490e-05
 2.449490e-05
 3.615379e-01
 3.505580e-01
 3.504157e-01
 3.507884e-01
 3.509608e-01
 3.510238e-01
 3.510403e-01
 3.510399e-01
 3.510339e-01
 3.510272e-01
 3.510221e-01
 3.510194e-01
 3.510197e-01
 3.510233e-01
 3.510301e-01
 3.510398e-01
 3.510510e-01
 3.510609e-01
 3.510625e-01
 3.510386e-01
 3.509441e-01
 3.506866e-01
 3.500905e-01
 3.500995e-01
 3.627820e-01
 2.449490e-05
 2.449490e-05
 2.449490e-05
 2.449490e-05
 2.449490e-05
 2.449490e-05
 2.449490e-05
 3.597502e-01
 3.502894e-01
 3.503752e-01
 3.507766e-01
 3.509554e-01
 3.510192e-01
 3.510370e-01
 3.510371e-01
 3.510316e-01
 3.510254e-01
 3.510208e-01
 3.510188e-01
 3.510198e-01
 3.510241e-01
 3.510316e-01
 3.510417e-01
 3.510538e-01
 3.510641e-01
 3.510667e-01
 3.510433e-01
 3.509489e-01
 3.506903e-01
 3.500072e-01
 3.492071e-01
 3.573144e-01
 2.449490e-05
 2.449490e-05
 2.449490e-05
 2.449490e-05
 2.449490e-05
 2.449490e-05
 3.604390e-01
 3.471043e-01
 3.489685e-01
 3.502581e-01
 3.507604e-01
 3.509418e-01
 3.510022e-01
 3.510206e-01
 3.510225e-01
 3.510193e-01
 3.510150e-01
 3.510120e-01
 3.510110e-01
 3.510126e-01
 3.510168e-01
 3.510236e-01
 3.510326e-01
 3.510426e-01
 3.510510e-01
 3.510517e-01
 3.510292e-01
 3.509405e-01
 3.506788e-01
 3.499108e-01
 3.475781e-01
 3.419851e-01
 3.522731e-01
 2.449490e-05
 2.449490e-05
 2.449490e-05
 2.449490e-05
 2.449490e-05
 3.442651e-01
 3.459569e-01
 3.490868e-01
 3.503540e-01
 3.507788e-01
 3.509241e-01
 3.509756e-01
 3.509933e-01
 3.509983e-01
 3.509986e-01
 3.509975e-01
 3.509967e-01
 3.509971e-01
 3.509992e-01
 3.510029e-01
 3.510084e-01
 3.510147e-01
 3.510215e-01
 3.510252e-01
 3.510232e-01
 3.509983e-01
 3.509200e-01
 3.506737e-01
 3.502503e-01
 3.486822e-01
 3.442952e-01
 3.348199e-01
 3.272989e-01
 2.859133e-01
 2.582672e-01
 3.114393e-01
 3.334489e-01
 3.403261e-01
 3.472515e-01
 3.497387e-01
 3.505691e-01
 3.508270e-01
 3.509177e-01
 3.509505e-01
 3.509649e-01
 3.509713e-01
 3.509744e-01
 3.509761e-01
 3.509775e-01
 3.509792e-01
 3.509815e-01
 3.509847e-01
 3.509885e-01
 3.509924e-01
 3.509959e-01
 3.509967e-01
 3.509927e-01
 3.509725e-01
 3.509179e-01
 3.507453e-01
 3.505297e-01
 3.497934e-01
 3.478501e-01
 3.423597e-01
 3.268470e-01
 2.856058e-01
 2.594739e-01
 3.105587e-01
 3.362656e-01
 3.457901e-01
 3.490946e-01
 3.502573e-01
 3.506824e-01
 3.508377e-01
 3.508972e-01
 3.509229e-01
 3.509363e-01
 3.509444e-01
 3.509498e-01
 3.509536e-01
 3.509567e-01
 3.509593e-01
 3.509619e-01
 3.509644e-01
 3.509669e-01
 3.509686e-01
 3.509698e-01
 3.509675e-01
 3.509625e-01
 3.509436e-01
 3.509042e-01
 3.507947e-01
 3.507010e-01
 3.503694e-01
 3.496229e-01
 3.478085e-01
 3.439692e-01
 3.381064e-01
 3.358865e-01
 3.411736e-01
 3.462245e-01
 3.489166e-01
 3.500552e-01
 3.505408e-01
 3.507478e-01
 3.508407e-01
 3.508828e-01
 3.509030e-01
 3.509147e-01
 3.509224e-01
 3.509283e-01
 3.509329e-01
 3.509366e-01
 3.509396e-01
 3.509422e-01
 3.509443e-01
 3.509459e-01
 3.509467e-01
 3.509467e-01
 3.509443e-01
 3.509405e-01
 3.509262e-01
 3.509028e-01
 3.508349e-01
 3.508043e-01
 3.506746e-01
 3.504577e-01
 3.500963e-01
 3.495912e-01
 3.490880e-01
 3.489167e-01
 3.493303e-01
 3.498464e-01
 3.502785e-01
 3.505551e-01
 3.507141e-01
 3.507997e-01
 3.508464e-01
 3.508717e-01
 3.508877e-01
 3.508981e-01
 3.509054e-01
 3.509112e-01
 3.509159e-01
 3.509198e-01
 3.509232e-01
 3.509259e-01
 3.509281e-01
 3.509298e-01
 3.509308e-01
 3.509313e-01
 3.509300e-01
 3.509281e-01
 3.509192e-01
 3.509058e-01
 3.508675e-01
 3.508643e-01
 3.508124e-01
 3.507670e-01
 3.507051e-01
 3.506651e-01
 3.506423e-01
 3.506210e-01
 3.506425e-01
 3.506597e-01
 3.507031e-01
 3.507462e-01
 3.507926e-01
 3.508279e-01
 3.508525e-01
 3.508689e-01
 3.508796e-01
 3.508875e-01
 3.508934e-01
 3.508980e-01
 3.509018e-01
 3.509051e-01
 3.509080e-01
 3.509107e-01
 3.509129e-01
 3.509149e-01
 3.509166e-01
 3.509183e-01
 3.509194e-01
 3.509207e-01
 3.509179e-01
 3.509126e-01
 3.508914e-01
 3.509084e-01
 3.508968e-01
 3.508944e-01
 3.508940e-01
 3.509082e-01
 3.509246e-01
 3.509175e-01
 3.509023e-01
 3.508680e-01
 3.508548e-01
 3.508437e-01
 3.508444e-01
 3.508516e-01
 3.508611e-01
 3.508693e-01
 3.508760e-01