# vtk DataFile Version 2.0
Generated by vtk_extract.c
ASCII
DATASET STRUCTURED_POINTS
DIMENSIONS 32 32 32
ORIGIN 0 0 0
SPACING 1 1 1
POINT_DATA 32768
VECTORS vel float
-3.516103e-06 -7.735533e-06  7.225344e-06
-3.110552e-06 -4.435490e-06  5.830857e-06
-5.039787e-06  6.595314e-07  5.141593e-06
-5.810187e-06  7.950704e-06  3.682771e-06
-4.814623e-06  1.634591e-05  1.683293e-06
-4.036439e-07  2.571896e-05 -1.167920e-07
 4.105839e-06  2.239064e-05 -2.162186e-06
 7.741903e-06  2.550231e-05 -8.534013e-07
 1.021253e-05  1.392296e-05 -1.286504e-06
 7.533655e-06  7.481393e-06 -2.266887e-06
 2.754708e-06  5.636262e-07 -1.685841e-06
 1.184530e-06 -1.133521e-06 -2.142909e-06
-8.126239e-07 -3.205040e-06 -1.982284e-06
-1.697641e-06 -3.998638e-06 -2.053841e-06
-3.012434e-06 -4.940551e-06 -2.076360e-06
-3.688075e-06 -5.451795e-06 -2.098092e-06
-4.721023e-06 -5.881943e-06 -2.076279e-06
-5.127871e-06 -6.118212e-06 -1.997237e-06
-5.877768e-06 -6.289063e-06 -1.838795e-06
-6.018254e-06 -6.419265e-06 -1.609411e-06
-6.546723e-06 -6.585083e-06 -1.281424e-06
-6.484485e-06 -6.805109e-06 -8.795605e-07
-6.831338e-06 -7.129165e-06 -3.606510e-07
-6.569255e-06 -7.519360e-06  1.919751e-07
-6.759701e-06 -8.048064e-06  8.991723e-07
-6.355415e-06 -8.560108e-06  1.573005e-06
-6.404436e-06 -9.251309e-06  2.515952e-06
-5.874905e-06 -9.694316e-06  3.269796e-06
-5.702505e-06 -1.044712e-05  4.623132e-06
-4.961724e-06 -1.033837e-05  5.186429e-06
-4.503873e-06 -1.066181e-05  6.789164e-06
-3.518065e-06 -9.128386e-06  6.351576e-06
-7.023986e-06 -5.287367e-06  9.370251e-06
-6.735715e-06 -1.145181e-06  7.716514e-06
-6.766022e-06  2.985857e-06  7.169400e-06
-5.447573e-06  8.415729e-06  5.692052e-06
-3.386107e-06  1.382086e-05  3.631113e-06
 7.318121e-07  1.794701e-05  2.503252e-06
 4.162644e-06  1.793069e-05  1.033950e-06
 7.985467e-06  1.904950e-05  4.570572e-08
 9.586263e-06  1.421629e-05 -5.621102e-07
 9.818304e-06  1.090490e-05 -8.617929e-07
 7.811856e-06  6.004556e-06 -1.855988e-06
 5.213522e-06  2.903078e-06 -1.966683e-06
 3.175619e-06  1.024824e-06 -2.366624e-06
 1.704222e-06 -2.214538e-07 -2.451740e-06
 1.096600e-07 -1.024497e-06 -2.561364e-06
-8.856207e-07 -1.633105e-06 -2.610092e-06
-2.233996e-06 -2.054627e-06 -2.621400e-06
-2.985516e-06 -2.368809e-06 -2.571690e-06
-4.136593e-06 -2.605364e-06 -2.447834e-06
-4.719105e-06 -2.813231e-06 -2.223826e-06
-5.742002e-06 -3.040769e-06 -1.887325e-06
-6.238661e-06 -3.318789e-06 -1.407315e-06
-7.171134e-06 -3.685045e-06 -7.909619e-07
-7.567070e-06 -4.130219e-06 -1.854383e-08
-8.298016e-06 -4.681321e-06  8.582861e-07
-8.497225e-06 -5.266884e-06  1.822778e-06
-9.016112e-06 -5.988197e-06  3.015815e-06
-8.943958e-06 -6.529972e-06  4.074308e-06
-9.111858e-06 -7.367646e-06  5.786935e-06
-8.627267e-06 -7.308658e-06  6.573658e-06
-8.223498e-06 -8.006332e-06  8.708993e-06
-7.437499e-06 -6.082942e-06  8.086443e-06
-8.762047e-06 -7.306998e-06  1.186983e-05
-7.130414e-06 -4.044482e-06  1.022407e-05
-5.791619e-06 -7.960053e-07  9.439959e-06
-3.449262e-06  2.998138e-06  7.621187e-06
-1.036098e-06  6.156365e-06  5.696880e-06
 2.196923e-06  9.177983e-06  4.124916e-06
 4.985159e-06  9.691300e-06  2.400454e-06
 7.658731e-06  1.076380e-05  1.029794e-06
 9.048245e-06  8.622533e-06 -1.025316e-07
 9.666735e-06  6.905459e-06 -8.444287e-07
 8.822724e-06  4.190663e-06 -1.507931e-06
 7.659294e-06  1.878536e-06 -2.161050e-06
 5.483395e-06 -1.732900e-07 -2.511094e-06
 4.131550e-06 -1.365074e-06 -2.834741e-06
 2.341872e-06 -2.305620e-06 -3.010935e-06
 1.229042e-06 -2.895261e-06 -3.132335e-06
-2.935424e-07 -3.367865e-06 -3.188728e-06
-1.242849e-06 -3.705190e-06 -3.179395e-06
-2.632491e-06 -3.986959e-06 -3.088544e-06
-3.505393e-06 -4.234527e-06 -2.893628e-06
-4.866314e-06 -4.490458e-06 -2.563309e-06
-5.760770e-06 -4.791521e-06 -2.070530e-06
-7.177909e-06 -5.162821e-06 -1.360107e-06
-8.087889e-06 -5.628032e-06 -4.601293e-07
-9.473538e-06 -6.188189e-06  7.336985e-07
-1.015334e-05 -6.823769e-06  2.033594e-06
-1.116421e-05 -7.566241e-06  3.587791e-06
-1.143704e-05 -8.296854e-06  5.176902e-06
-1.184431e-05 -9.050564e-06  7.187578e-06
-1.137284e-05 -9.435013e-06  8.668724e-06
-1.089485e-05 -9.686184e-06  1.081818e-05
-9.628129e-06 -8.604175e-06  1.082621e-05
-8.584242e-06 -4.504838e-06  1.586904e-05
-5.718756e-06 -2.088257e-06  1.397634e-05
-3.364161e-06  1.949689e-07  1.303079e-05
-4.029379e-07  2.757084e-06  1.073879e-05
 1.880588e-06  5.188798e-06  8.621596e-06
 4.546741e-06  7.186457e-06  6.349530e-06
 6.238049e-06  8.118062e-06  4.095122e-06
 8.083624e-06  9.056148e-06  2.305025e-06
 8.896110e-06  8.418099e-06  7.231438e-07
 9.500519e-06  7.726580e-06 -3.807471e-07
 8.996569e-06  6.279116e-06 -1.327940e-06
 8.386704e-06  4.907849e-06 -1.990226e-06
 6.907652e-06  3.461274e-06 -2.602560e-06
 5.629088e-06  2.309036e-06 -2.989396e-06
 3.948129e-06  1.470994e-06 -3.315902e-06
 2.767655e-06  8.424868e-07 -3.513680e-06
 1.169687e-06  3.859196e-07 -3.634685e-06
 8.832654e-08  2.734103e-08 -3.655892e-06
-1.474996e-06 -2.588552e-07 -3.570168e-06
-2.571103e-06 -5.095554e-07 -3.347942e-06
-4.216387e-06 -7.539137e-07 -2.955483e-06
-5.453782e-06 -1.021981e-06 -2.350780e-06
-7.287713e-06 -1.350798e-06 -1.487810e-06
-8.741679e-06 -1.761977e-06 -2.914240e-07
-1.068149e-05 -2.288752e-06  1.243188e-06
-1.206529e-05 -2.904119e-06  3.150389e-06
-1.356918e-05 -3.642736e-06  5.411823e-06
-1.409859e-05 -4.456701e-06  7.567788e-06
-1.450607e-05 -5.349316e-06  1.025841e-05
-1.374470e-05 -5.730212e-06  1.199981e-05
-1.268160e-05 -6.218681e-06  1.458850e-05
-1.064195e-05 -5.126322e-06  1.445349e-05
-8.093386e-06 -6.362665e-06  1.760608e-05
-4.625492e-06 -5.374364e-06  1.624990e-05
-1.812908e-06 -3.642380e-06  1.457908e-05
 1.194140e-06 -2.031509e-06  1.226782e-05
 3.604285e-06  5.628186e-08  9.749829e-06
 5.811248e-06  1.536096e-06  7.256427e-06
 7.038554e-06  2.745919e-06  4.779874e-06
 8.291072e-06  3.630518e-06  2.816874e-06
 8.763082e-06  3.742596e-06  1.113443e-06
 9.252260e-06  3.640339e-06 -1.817339e-07
 8.847125e-06  3.022947e-06 -1.246020e-06
 8.510697e-06  2.310950e-06 -2.060962e-06
 7.330611e-06  1.442592e-06 -2.706264e-06
 6.422877e-06  6.394355e-07 -3.223342e-06
 4.863000e-06 -8.880190e-08 -3.597729e-06
 3.794225e-06 -6.374735e-07 -3.873595e-06
 2.216038e-06 -1.083360e-06 -4.038350e-06
 1.131650e-06 -1.416827e-06 -4.100611e-06
-4.705689e-07 -1.684394e-06 -4.043507e-06
-1.630001e-06 -1.897656e-06 -3.849024e-06
-3.359012e-06 -2.084612e-06 -3.478091e-06
-4.704362e-06 -2.269919e-06 -2.901784e-06
-6.688269e-06 -2.487548e-06 -2.029075e-06
-8.292297e-06 -2.788233e-06 -8.721960e-07
-1.057429e-05 -3.198749e-06  8.064000e-07
-1.221204e-05 -3.808762e-06  2.840178e-06
-1.409128e-05 -4.485660e-06  5.467529e-06
-1.466731e-05 -5.422568e-06  8.122191e-06
-1.525941e-05 -6.260449e-06  1.106672e-05
-1.446046e-05 -6.904257e-06  1.364620e-05
-1.315219e-05 -7.186653e-06  1.613272e-05
-1.066948e-05 -6.961896e-06  1.666348e-05
-6.726573e-06 -2.955648e-06  2.059575e-05
-2.498024e-06 -3.212873e-06  1.953598e-05
 9.593542e-07 -2.172766e-06  1.760536e-05
 3.945813e-06 -1.308875e-06  1.486779e-05
 5.962754e-06  4.784591e-07  1.133422e-05
 7.242315e-06  1.752598e-06  8.030377e-06
 7.731276e-06  3.120997e-06  5.084772e-06
 8.577455e-06  4.051896e-06  3.008212e-06
 8.715124e-06  4.640786e-06  1.201635e-06
 9.093925e-06  4.907705e-06 -1.178269e-07
 8.659286e-06  4.873558e-06 -1.259545e-06
 8.382088e-06  4.647913e-06 -2.123188e-06
 7.383000e-06  4.227114e-06 -2.850466e-06
 6.662327e-06  3.747340e-06 -3.397834e-06
 5.331271e-06  3.248279e-06 -3.840970e-06
 4.395444e-06  2.797155e-06 -4.149460e-06
 2.932844e-06  2.428693e-06 -4.355920e-06
 1.911889e-06  2.136022e-06 -4.441766e-06
 3.438855e-07  1.919597e-06 -4.401329e-06
-8.070310e-07  1.761203e-06 -4.211876e-06
-2.552457e-06  1.650593e-06 -3.841193e-06
-3.922549e-06  1.559727e-06 -3.251242e-06
-5.930903e-06  1.464010e-06 -2.391960e-06
-7.657664e-06  1.305007e-06 -1.155244e-06
-1.008610e-05  1.023011e-06  5.896313e-07
-1.228342e-05  5.542635e-07  3.042507e-06
-1.492687e-05 -1.411687e-07  6.468731e-06
-1.580669e-05 -9.819324e-07  9.789440e-06
-1.664220e-05 -1.778117e-06  1.349649e-05
-1.542297e-05 -2.615420e-06  1.635110e-05
-1.356673e-05 -2.834131e-06  1.899800e-05
-1.021545e-05 -3.318545e-06  1.973242e-05
-6.446446e-06 -4.576918e-06  2.055853e-05
-1.965046e-06 -6.040006e-06  1.978383e-05
 1.564828e-06 -5.286659e-06  1.784596e-05
 4.939711e-06 -5.292633e-06  1.546796e-05
 7.056381e-06 -3.623248e-06  1.170173e-05
 8.258503e-06 -2.518049e-06  8.457248e-06
 8.658558e-06 -1.070676e-06  5.367745e-06
 9.137970e-06  3.899474e-08  3.219049e-06
 9.085311e-06  8.799246e-07  1.339545e-06
 9.164016e-06  1.524034e-06 -6.110950e-08
 8.487472e-06  1.878299e-06 -1.263526e-06
 8.158572e-06  1.957422e-06 -2.204372e-06
 7.180788e-06  1.838336e-06 -2.967820e-06
 6.596986e-06  1.586815e-06 -3.568340e-06
 5.434269e-06  1.266403e-06 -4.030276e-06
 4.697324e-06  9.473972e-07 -4.375443e-06
 3.395583e-06  6.622363e-07 -4.603792e-06
 2.519586e-06  4.478250e-07 -4.717079e-06
 1.066050e-06  3.014812e-07 -4.696572e-06
 2.054594e-10  2.322423e-07 -4.522670e-06
-1.678590e-06  2.206430e-07 -4.152087e-06
-3.008104e-06  2.653499e-07 -3.562939e-06
-5.010805e-06  3.171499e-07 -2.645781e-06
-6.668468e-06  3.624473e-07 -1.422119e-06
-9.094261e-06  2.791461e-07  4.024635e-07
-1.105045e-05  4.525251e-08  2.706176e-06
-1.347324e-05 -5.036159e-07  5.886049e-06
-1.486202e-05 -1.215796e-06  9.381280e-06
-1.570968e-05 -2.006443e-06  1.319275e-05
-1.484665e-05 -2.923353e-06  1.620234e-05
-1.318571e-05 -3.515071e-06  1.906301e-05
-9.817252e-06 -4.575245e-06  1.962110e-05
-5.761798e-06 -1.200468e-06  1.966285e-05
-1.422403e-06 -4.397716e-06  2.007215e-05
 2.565246e-06 -3.551935e-06  1.779783e-05
 6.093968e-06 -3.890561e-06  1.608164e-05
 8.256087e-06 -2.316177e-06  1.208423e-05
 9.836973e-06 -1.388008e-06  9.318636e-06
 9.891655e-06  4.811468e-07  5.784028e-06
 1.020049e-05  1.473900e-06  3.556731e-06
 9.551697e-06  2.853239e-06  1.375168e-06
 9.025106e-06  3.750570e-06 -1.021869e-07
 8.126052e-06  4.286561e-06 -1.424617e-06
 7.637968e-06  4.544686e-06 -2.351415e-06
 6.695878e-06  4.562314e-06 -3.149798e-06
 6.239314e-06  4.438615e-06 -3.731906e-06
 5.273675e-06  4.239260e-06 -4.207635e-06
 4.749500e-06  4.026183e-06 -4.553525e-06
 3.672962e-06  3.840806e-06 -4.802808e-06
 3.002994e-06  3.710706e-06 -4.936896e-06
 1.742554e-06  3.658210e-06 -4.950068e-06
 8.562046e-07  3.682411e-06 -4.806728e-06
-6.636817e-07  3.795196e-06 -4.479042e-06
-1.851002e-06  3.971983e-06 -3.894004e-06
-3.696286e-06  4.220677e-06 -3.031613e-06
-5.272068e-06  4.460217e-06 -1.714694e-06
-7.437623e-06  4.686197e-06  1.040052e-08
-9.315257e-06  4.684154e-06  2.442156e-06
-1.148650e-05  4.489477e-06  5.376548e-06
-1.271237e-05  3.834953e-06  8.579772e-06
-1.404536e-05  3.028489e-06  1.219477e-05
-1.345957e-05  1.469081e-06  1.527928e-05
-1.195652e-05  1.088356e-06  1.786503e-05
-9.288754e-06 -1.600386e-06  1.919393e-05
-5.965707e-06 -5.376796e-06  1.944914e-05
-1.155777e-06 -6.796378e-06  1.727590e-05
 2.738868e-06 -8.148609e-06  1.817359e-05
 6.617565e-06 -6.015905e-06  1.334341e-05
 8.975143e-06 -6.997208e-06  1.295051e-05
 1.046822e-05 -3.936647e-06  8.583195e-06
 1.111511e-05 -3.384693e-06  6.353031e-06
 1.089967e-05 -9.431061e-07  3.452414e-06
 9.192529e-06  4.873145e-07  1.425826e-06
 8.507407e-06  1.439519e-06 -3.655535e-07
 7.249989e-06  1.989486e-06 -1.586635e-06
 6.738239e-06  2.207234e-06 -2.606289e-06
 5.888436e-06  2.210697e-06 -3.324404e-06
 5.622682e-06  2.111131e-06 -3.907831e-06
 4.881633e-06  1.968368e-06 -4.349170e-06
 4.612935e-06  1.831806e-06 -4.693439e-06
 3.787373e-06  1.733105e-06 -4.938824e-06
 3.368862e-06  1.699284e-06 -5.086440e-06
 2.348204e-06  1.743633e-06 -5.111918e-06
 1.690502e-06  1.884971e-06 -4.994356e-06
 3.952058e-07  2.120512e-06 -4.675239e-06
-5.607881e-07  2.465475e-06 -4.137656e-06
-2.174264e-06  2.890640e-06 -3.251990e-06
-3.385190e-06  3.407517e-06 -2.086778e-06
-5.218458e-06  3.903881e-06 -3.460902e-07
-6.388905e-06  4.371320e-06  1.579913e-06
-8.084558e-06  4.556159e-06  4.271713e-06
-9.309907e-06  4.363086e-06  6.951427e-06
-1.068610e-05  3.407021e-06  1.064401e-05
-1.159808e-05  1.546970e-06  1.297186e-05
-1.074928e-05 -7.602634e-07  1.678089e-05
-8.148090e-06 -2.453694e-06  1.641122e-05
-3.943107e-06 -2.291729e-06  1.751820e-05
-1.700806e-06 -9.648687e-06  1.957427e-05
 3.372297e-06 -7.338072e-06  1.607772e-05
 6.743851e-06 -7.167995e-06  1.497010e-05
 7.938647e-06 -5.275155e-06  1.162948e-05
 1.132299e-05 -3.851083e-06  7.838763e-06
 1.096098e-05 -5.186461e-07  5.412451e-06
 8.713948e-06  2.681457e-06  2.415009e-06
 7.586240e-06  3.569042e-06  4.559638e-07
 6.460006e-06  4.732812e-06 -1.126692e-06
 5.396951e-06  4.874163e-06 -2.265620e-06
 5.160836e-06  4.996072e-06 -3.063505e-06
 4.635017e-06  4.854967e-06 -3.672309e-06
 4.687495e-06  4.761857e-06 -4.153255e-06
 4.275939e-06  4.636285e-06 -4.535614e-06
 4.317282e-06  4.574442e-06 -4.849234e-06
 3.805431e-06  4.556638e-06 -5.089376e-06
 3.698274e-06  4.616313e-06 -5.251610e-06
 2.994213e-06  4.762464e-06 -5.315974e-06
 2.661633e-06  5.009345e-06 -5.247000e-06
 1.702543e-06  5.376029e-06 -5.009636e-06
 1.098139e-06  5.859269e-06 -4.536463e-06
-9.522134e-08  6.480596e-06 -3.814252e-06
-8.825780e-07  7.197036e-06 -2.744000e-06
-2.037547e-06  8.030454e-06 -1.415748e-06
-2.781870e-06  8.839710e-06  3.294283e-07
-3.799523e-06  9.631728e-06  2.494012e-06
-4.472704e-06  9.997865e-06  4.912966e-06
-5.823853e-06  9.596394e-06  8.016271e-06
-6.897016e-06  7.857495e-06  1.054271e-05
-9.433015e-06  3.983882e-06  1.438094e-05
-7.338486e-06 -8.274704e-07  1.551578e-05
-8.200077e-06 -4.418836e-06  1.852209e-05
 1.739127e-06 -1.451419e-05  2.373364e-05
 1.945460e-06 -1.240799e-05  2.289797e-05
 4.587025e-06 -9.478489e-06  1.196257e-05
 1.283211e-05 -1.127564e-05  1.217512e-05
 1.277342e-05 -5.657534e-06  8.214309e-06
 6.811132e-06  2.208764e-07  4.816463e-06
 6.442950e-06  9.087717e-07  1.340277e-06
 4.049046e-06  2.606467e-06 -3.342231e-07
 3.457906e-06  2.724241e-06 -1.984244e-06
 2.927875e-06  2.672877e-06 -2.734078e-06
 3.213975e-06  2.433733e-06 -3.443889e-06
 3.119842e-06  2.237978e-06 -3.913767e-06
 3.584331e-06  2.087695e-06 -4.322452e-06
 3.514479e-06  2.017837e-06 -4.656579e-06
 3.888527e-06  2.017607e-06 -4.937551e-06
 3.693001e-06  2.089607e-06 -5.159225e-06
 3.909088e-06  2.240134e-06 -5.316913e-06
 3.544738e-06  2.482649e-06 -5.391213e-06
 3.588049e-06  2.829239e-06 -5.369320e-06
 3.060313e-06  3.302492e-06 -5.212165e-06
 2.983294e-06  3.899897e-06 -4.922699e-06
 2.385440e-06  4.654562e-06 -4.428372e-06
 2.352642e-06  5.525491e-06 -3.793568e-06
 1.811670e-06  6.575892e-06 -2.820262e-06
 1.942707e-06  7.715597e-06 -1.689036e-06
 1.496374e-06  8.909693e-06  3.823906e-08
 1.798078e-06  9.929543e-06  1.737223e-06
 1.145736e-06  1.058012e-05  4.540396e-06
-1.978140e-07  9.552695e-06  7.247492e-06
-3.245070e-06  7.589449e-06  1.201995e-05
-1.010825e-05 -2.450719e-06  1.726450e-05
-1.747998e-05 -1.213079e-06  2.449800e-05
-7.884165e-06 -1.124764e-05  2.585588e-05
 4.993736e-06  3.847069e-06 -6.164810e-07
 1.772213e-05 -2.304094e-05  2.188011e-05
 1.534215e-05 -6.967698e-06  9.407821e-06
-5.788821e-06  1.545482e-06 -1.656511e-06
-4.501671e-07  2.605726e-06 -2.163081e-06
-4.273709e-06  4.852453e-06 -4.900781e-06
-3.813444e-06  5.132644e-06 -4.723499e-06
-2.429954e-06  5.090257e-06 -4.745076e-06
-1.312727e-06  4.682160e-06 -4.522041e-06
 1.347380e-07  4.480752e-06 -4.559876e-06
 9.657405e-07  4.260934e-06 -4.575480e-06
 2.062072e-06  4.224946e-06 -4.749664e-06
 2.510972e-06  4.247557e-06 -4.922929e-06
 3.312098e-06  4.363876e-06 -5.130363e-06
 3.515057e-06  4.537194e-06 -5.314331e-06
 4.126212e-06  4.786179e-06 -5.476951e-06
 4.181762e-06  5.109240e-06 -5.596998e-06
 4.687076e-06  5.534227e-06 -5.668932e-06
 4.690489e-06  6.054887e-06 -5.675782e-06
 5.201961e-06  6.713618e-06 -5.615298e-06
 5.303251e-06  7.464197e-06 -5.456497e-06
 5.976447e-06  8.408225e-06 -5.223547e-06
 6.368927e-06  9.408825e-06 -4.799318e-06
 7.400256e-06  1.067818e-05 -4.389037e-06
 8.457021e-06  1.181273e-05 -3.601786e-06
 9.856061e-06  1.325012e-05 -3.214698e-06
 1.206290e-05  1.372141e-05 -1.686448e-06
 1.371142e-05  1.534086e-05 -2.061998e-06
 1.267234e-05  1.338235e-05  4.989337e-06
 1.025772e-05  1.265593e-05  4.543670e-06
 3.316982e-05  2.252895e-05 -1.535569e-06
-1.663943e-06 -3.488573e-06  1.357230e-05
 1.396212e-05 -4.471668e-05  6.369174e-05
 1.097532e-05 -3.929590e-06 -1.786212e-06
-2.258985e-05 -9.585367e-07  7.926527e-06
-2.030355e-06 -4.421181e-06  4.552832e-06
-7.304915e-06  1.140523e-06  2.729493e-06
-8.194974e-06  1.659193e-06 -3.150439e-06
-6.545299e-06  1.763714e-06 -2.169697e-06
-4.734983e-06  1.229531e-06 -3.858295e-06
-3.538836e-06  9.622092e-07 -4.057795e-06
-1.720407e-06  7.455124e-07 -4.474740e-06
-6.465674e-07  7.579008e-07 -4.665887e-06
 7.989843e-07  8.864320e-07 -4.884399e-06
 1.585782e-06  1.096603e-06 -5.073594e-06
 2.744965e-06  1.358113e-06 -5.269618e-06
 3.314706e-06  1.656499e-06 -5.454632e-06
 4.315139e-06  1.992436e-06 -5.637147e-06
 4.789577e-06  2.385598e-06 -5.812301e-06
 5.760210e-06  2.834606e-06 -5.980489e-06
 6.270488e-06  3.379168e-06 -6.137654e-06
 7.350762e-06  3.980469e-06 -6.269311e-06
 8.035542e-06  4.721081e-06 -6.363678e-06
 9.367977e-06  5.478916e-06 -6.371425e-06
 1.038697e-05  6.441669e-06 -6.286446e-06
 1.210928e-05  7.321307e-06 -6.017145e-06
 1.349907e-05  8.425176e-06 -5.470125e-06
 1.580674e-05  9.382876e-06 -4.773031e-06
 1.723571e-05  1.032061e-05 -2.802209e-06
 2.085098e-05  1.156548e-05 -1.509262e-06
 2.546353e-05  1.367505e-05  2.030745e-06
 3.203781e-05  1.573813e-05  4.495240e-06
 8.558941e-05  2.082793e-05  2.355192e-05
 8.484904e-05  1.182729e-05  2.610996e-05
-6.489262e-06 -2.284343e-05 -3.044815e-06
-7.224302e-05 -1.137483e-06  2.650516e-05
-2.676972e-05 -7.476752e-06  2.344092e-05
-2.815458e-05 -1.986601e-07  1.526125e-05
-1.621649e-05  2.854552e-06  5.240936e-06
-1.381285e-05  3.711484e-06  1.159297e-06
-1.084480e-05  2.109263e-06 -2.418600e-06
-8.423635e-06  1.924593e-06 -3.929573e-06
-6.097383e-06  1.499453e-06 -4.447445e-06
-3.863501e-06  1.633707e-06 -4.851161e-06
-2.281204e-06  1.920690e-06 -4.980734e-06
-4.776128e-07  2.341734e-06 -5.144327e-06
 6.665844e-07  2.795241e-06 -5.271744e-06
 2.159925e-06  3.249712e-06 -5.421844e-06
 3.070653e-06  3.680504e-06 -5.583338e-06
 4.421535e-06  4.107744e-06 -5.767037e-06
 5.271508e-06  4.531057e-06 -5.972490e-06
 6.639988e-06  4.991450e-06 -6.203474e-06
 7.575800e-06  5.469230e-06 -6.437479e-06
 9.089218e-06  6.028947e-06 -6.680569e-06
 1.021646e-05  6.579228e-06 -6.835556e-06
 1.198799e-05  7.263700e-06 -6.978661e-06
 1.339303e-05  7.807597e-06 -6.802323e-06
 1.560782e-05  8.604297e-06 -6.705563e-06
 1.757044e-05  8.878473e-06 -5.781108e-06
 2.045293e-05  9.955867e-06 -5.139137e-06
 2.527709e-05  9.349584e-06 -2.828651e-06
 2.873630e-05  1.262961e-05 -1.395104e-06
 4.090285e-05  7.136276e-06  7.407528e-06
 5.666479e-05  1.818161e-05  3.846430e-06
 6.697510e-05  6.419464e-06  1.952511e-05
 2.716154e-05  2.787766e-06  9.877297e-06
 2.095510e-06 -8.124592e-06  1.309694e-05
-4.305754e-05 -1.802751e-05  1.205028e-05
-7.084403e-05 -1.100969e-05  1.547864e-05
-3.715518e-05 -1.963425e-06  4.286481e-06
-2.995879e-05 -1.753231e-06  8.595608e-06
-1.680199e-05 -3.057726e-06  2.643848e-06
-1.215298e-05 -3.343988e-06  9.374149e-07
-8.641542e-06 -3.710171e-06 -2.307639e-06
-6.581073e-06 -3.549354e-06 -3.445322e-06
-4.470602e-06 -2.976328e-06 -4.482214e-06
-2.985192e-06 -2.284924e-06 -4.828390e-06
-1.158815e-06 -1.497858e-06 -5.148627e-06
 7.640459e-08 -7.630561e-07 -5.291984e-06
 1.726137e-06 -1.072637e-07 -5.458579e-06
 2.833468e-06  4.627407e-07 -5.605410e-06
 4.423911e-06  9.540601e-07 -5.797734e-06
 5.543403e-06  1.402024e-06 -6.022668e-06
 7.209707e-06  1.820507e-06 -6.297105e-06
 8.465682e-06  2.242720e-06 -6.602575e-06
 1.031221e-05  2.665151e-06 -6.919949e-06
 1.179026e-05  3.105311e-06 -7.205200e-06
 1.385598e-05  3.534318e-06 -7.411028e-06
 1.563097e-05  3.873909e-06 -7.435996e-06
 1.802018e-05  4.156298e-06 -7.316013e-06
 2.035917e-05  3.999458e-06 -6.504860e-06
 2.400765e-05  4.138213e-06 -5.866249e-06
 2.720958e-05  3.075835e-06 -1.888141e-06
 3.508974e-05  5.110807e-06 -1.135064e-07
 4.256460e-05 -7.132235e-07  1.137840e-05
 5.812243e-05  5.099453e-06  1.670259e-05
 6.505206e-05  3.021381e-06  1.326721e-05
 4.226281e-05  4.600444e-06  8.891645e-06
-1.043074e-05 -2.443050e-06  1.416790e-05
-3.966806e-05 -8.264675e-06  1.123671e-05
-5.622903e-05 -1.071013e-05  2.150686e-05
-6.407320e-05 -1.095037e-05  2.290828e-05
-3.223497e-05 -8.398577e-06  5.354298e-06
-2.368628e-05 -7.173466e-06  4.260357e-06
-1.413902e-05 -5.642913e-06  2.907394e-07
-8.978466e-06 -4.767200e-06 -1.235218e-06
-6.520163e-06 -3.622483e-06 -3.233354e-06
-4.373621e-06 -2.547449e-06 -4.090825e-06
-3.061521e-06 -1.333823e-06 -4.768371e-06
-1.377051e-06 -1.879208e-07 -5.035917e-06
-2.245438e-07  8.158518e-07 -5.250981e-06
 1.403220e-06  1.662717e-06 -5.367633e-06
 2.560901e-06  2.332775e-06 -5.513117e-06
 4.247139e-06  2.875449e-06 -5.676317e-06
 5.494174e-06  3.311059e-06 -5.901431e-06
 7.314262e-06  3.677062e-06 -6.177110e-06
 8.735139e-06  3.992950e-06 -6.503358e-06
 1.075762e-05  4.281566e-06 -6.857910e-06
 1.239061e-05  4.539269e-06 -7.195698e-06
 1.463851e-05  4.720340e-06 -7.496016e-06
 1.648968e-05  4.795746e-06 -7.640357e-06
 1.899520e-05  4.494959e-06 -7.625938e-06
 2.133224e-05  4.059036e-06 -7.090173e-06
 2.448552e-05  2.694444e-06 -6.053194e-06
 2.868381e-05  3.072346e-06 -3.087994e-06
 3.454631e-05  6.018616e-08  1.378467e-07
 4.423622e-05  9.731192e-06  9.221735e-06
 6.207031e-05  6.030646e-07  1.057842e-05
 8.167798e-05  2.091114e-06  2.320956e-05
 1.632073e-05  1.555812e-05 -3.003973e-06
-1.959442e-05 -1.372135e-06  1.461357e-05
-5.537662e-05 -1.491068e-05  1.853717e-05
-7.109016e-05 -1.584695e-05  1.879295e-05
-3.912183e-05 -2.546553e-05  5.941230e-06
-3.029956e-05 -2.114665e-05  1.033191e-05
-1.664951e-05 -1.692669e-05  3.370138e-06
-1.111114e-05 -1.367931e-05  1.834563e-06
-7.347195e-06 -1.095092e-05 -1.739574e-06
-5.289368e-06 -8.822429e-06 -2.908984e-06
-3.511292e-06 -6.937752e-06 -4.119357e-06
-2.553397e-06 -5.159205e-06 -4.551448e-06
-1.199126e-06 -3.704381e-06 -4.905205e-06
-3.320256e-07 -2.461905e-06 -5.034648e-06
 1.127154e-06 -1.521290e-06 -5.154243e-06
 2.185158e-06 -7.843828e-07 -5.248781e-06
 3.820400e-06 -2.353093e-07 -5.394603e-06
 5.067044e-06  1.675379e-07 -5.583040e-06
 6.901884e-06  4.586604e-07 -5.841791e-06
 8.355215e-06  6.745183e-07 -6.142798e-06
 1.040424e-05  8.090730e-07 -6.506302e-06
 1.207795e-05  9.035780e-07 -6.848743e-06
 1.431679e-05  8.278677e-07 -7.251833e-06
 1.617351e-05  6.748719e-07 -7.420859e-06
 1.853663e-05 -4.809851e-08 -7.717830e-06
 2.052108e-05 -7.315416e-07 -6.922990e-06
 2.333121e-05 -2.831798e-06 -6.704088e-06
 2.726287e-05 -3.375153e-06 -3.095311e-06
 3.533998e-05 -7.494063e-06 -3.993728e-06
 4.392329e-05  4.204189e-07  6.501569e-06
 7.603873e-05 -1.488676e-05  9.246169e-06
 2.913993e-05  1.043537e-05  2.323132e-05
 5.055126e-05  2.771492e-06  3.935632e-05
-2.350403e-05  1.572734e-06 -5.337617e-06
-7.621773e-05 -2.612676e-05  1.673016e-05
-3.427720e-05 -1.709851e-05  2.462129e-05
-3.057963e-05 -2.279253e-05  1.658249e-05
-1.757735e-05 -2.269301e-05  7.250318e-06
-1.297869e-05 -2.095033e-05  2.605341e-06
-9.161877e-06 -1.534449e-05 -1.778347e-06
-6.006360e-06 -1.221884e-05 -2.944494e-06
-4.011502e-06 -8.505921e-06 -3.927907e-06
-2.675125e-06 -5.688564e-06 -4.338451e-06
-2.085691e-06 -3.404476e-06 -4.624066e-06
-1.181238e-06 -1.613367e-06 -4.736803e-06
-5.938072e-07 -3.014928e-07 -4.795119e-06
 6.356387e-07  7.000435e-07 -4.819608e-06
 1.504735e-06  1.439500e-06 -4.872823e-06
 3.033853e-06  1.943013e-06 -4.960678e-06
 4.185244e-06  2.288547e-06 -5.105709e-06
 5.958407e-06  2.491853e-06 -5.307513e-06
 7.345983e-06  2.593711e-06 -5.560828e-06
 9.337394e-06  2.598145e-06 -5.866979e-06
 1.091551e-05  2.511750e-06 -6.196924e-06
 1.308684e-05  2.267339e-06 -6.584298e-06
 1.478326e-05  1.847573e-06 -6.916443e-06
 1.709015e-05  1.015436e-06 -7.339017e-06
 1.874536e-05 -2.978865e-08 -7.330687e-06
 2.123537e-05 -2.119491e-06 -7.467019e-06
 2.274456e-05 -3.667722e-06 -5.858067e-06
 2.316805e-05 -7.620874e-06 -3.266254e-06
 3.391300e-05 -1.019195e-05 -2.121364e-07
 3.430306e-05 -1.848600e-05 -1.805041e-06
 8.010113e-07 -1.104316e-08  1.656069e-05
-1.444990e-05  3.664405e-06  8.880788e-07
 1.088715e-05 -6.804424e-06  1.871023e-05
 5.441865e-06 -1.079232e-05  2.575028e-06
-3.551362e-05 -3.318055e-05  1.679128e-06
-1.435787e-05 -2.616111e-05  8.749217e-07
-1.298676e-05 -3.144066e-05  1.553968e-06
-9.747471e-06 -2.735091e-05 -3.995333e-06
-4.699091e-06 -2.329384e-05 -2.430335e-06
-2.319414e-06 -1.693351e-05 -3.736898e-06
-2.043706e-06 -1.224324e-05 -3.963232e-06
-1.701225e-06 -8.603994e-06 -4.239149e-06
-2.068379e-06 -5.975314e-06 -4.397806e-06
-1.567201e-06 -4.147735e-06 -4.383266e-06
-1.300782e-06 -2.826114e-06 -4.382840e-06
-3.634563e-07 -1.822990e-06 -4.352969e-06
 3.702602e-07 -1.199821e-06 -4.362293e-06
 1.749743e-06 -7.531441e-07 -4.401417e-06
 2.815613e-06 -5.132072e-07 -4.494148e-06
 4.510126e-06 -3.991034e-07 -4.629192e-06
 5.834046e-06 -4.013987e-07 -4.807215e-06
 7.736997e-06 -4.996263e-07 -5.028873e-06
 9.214186e-06 -6.942737e-07 -5.266499e-06
 1.120069e-05 -1.036545e-06 -5.559919e-06
 1.269816e-05 -1.542655e-06 -5.799341e-06
 1.460304e-05 -2.378811e-06 -6.155845e-06
 1.596788e-05 -3.438149e-06 -6.179378e-06
 1.768794e-05 -5.176987e-06 -6.669082e-06
 1.817894e-05 -6.249876e-06 -5.517153e-06
 2.159356e-05 -9.321441e-06 -7.358362e-06
 1.624037e-05 -8.233019e-06 -2.478195e-06
-1.241425e-07  1.401150e-06  4.466086e-06
-2.913779e-06  1.332816e-05  1.793493e-05
 7.964605e-06  1.022775e-05  1.827634e-05
-7.326895e-07 -6.163612e-06  1.305037e-05
 1.259433e-05  6.210405e-06  2.417279e-05
 7.123248e-06 -1.014773e-05  1.261145e-05
-1.522458e-05 -4.059085e-05 -1.660914e-06
-7.015241e-06 -3.685216e-05 -1.196653e-05
-5.929997e-06 -3.245497e-05 -6.114923e-06
-2.911230e-06 -2.559935e-05 -7.804647e-06
-1.843011e-06 -1.475763e-05 -4.996254e-06
-2.630049e-06 -9.802457e-06 -5.246766e-06
-3.248063e-06 -5.430918e-06 -4.517469e-06
-3.615840e-06 -3.032665e-06 -4.318897e-06
-3.166378e-06 -1.150253e-06 -4.048904e-06
-3.128221e-06  2.144950e-07 -3.929347e-06
-2.138199e-06  9.891548e-07 -3.823850e-06
-1.508742e-06  1.555453e-06 -3.774431e-06
-1.413325e-07  1.842087e-06 -3.774810e-06
 9.122647e-07  1.974970e-06 -3.804080e-06
 2.626610e-06  1.967967e-06 -3.881722e-06
 3.967983e-06  1.872807e-06 -3.986731e-06
 5.890283e-06  1.695125e-06 -4.131740e-06
 7.364771e-06  1.447844e-06 -4.302534e-06
 9.352982e-06  1.083725e-06 -4.529553e-06
 1.081872e-05  6.101604e-07 -4.784115e-06
 1.270636e-05 -1.200332e-07 -5.161337e-06
 1.388793e-05 -9.521824e-07 -5.463286e-06
 1.485544e-05 -2.099291e-06 -5.819551e-06
 1.471958e-05 -2.889879e-06 -5.410853e-06
 1.132385e-05 -3.772079e-06 -4.254623e-06
 6.907989e-07  1.943319e-06  2.056611e-06
-2.701643e-06  6.266345e-07  8.894277e-06
 7.991455e-06  7.921015e-06  1.387803e-05
 9.807046e-06 -3.605204e-06  6.600700e-06
 1.604275e-05  8.622575e-06  2.317654e-05
 1.416007e-05 -5.245086e-06  5.315466e-06
 1.403822e-05 -1.481793e-06  9.048805e-06
-5.083385e-06 -1.099499e-05  3.330250e-06
-1.351836e-05 -7.715388e-05  3.718749e-06
 9.889310e-06 -3.156315e-05 -2.140411e-06
 1.726744e-06 -3.203183e-05 -8.272380e-06
-1.416449e-06 -1.515421e-05 -3.935355e-06
-5.055522e-06 -1.164644e-05 -4.967188e-06
-6.098669e-06 -6.956245e-06 -3.374984e-06
-6.338415e-06 -4.935133e-06 -3.650594e-06
-6.385543e-06 -2.592382e-06 -3.306545e-06
-5.913454e-06 -1.819517e-06 -3.309017e-06
-4.978411e-06 -9.957120e-07 -3.163213e-06
-4.211171e-06 -6.957888e-07 -3.146635e-06
-2.728061e-06 -5.420276e-07 -3.079405e-06
-1.514834e-06 -5.827734e-07 -3.083975e-06
 3.497691e-07 -7.025309e-07 -3.085640e-06
 1.827573e-06 -8.805554e-07 -3.115075e-06
 3.843421e-06 -1.094859e-06 -3.146053e-06
 5.359097e-06 -1.321753e-06 -3.155236e-06
 7.283905e-06 -1.614497e-06 -3.162620e-06
 8.550175e-06 -1.899903e-06 -3.050848e-06
 9.983842e-06 -2.362134e-06 -2.958788e-06
 1.031652e-05 -2.589184e-06 -2.380170e-06
 1.040198e-05 -3.118239e-06 -1.994752e-06
 8.266073e-06 -2.352853e-06  1.914893e-07
 4.764262e-06 -1.015732e-06  1.333984e-06
 3.210833e-06  2.074989e-06  6.836960e-06
 3.277612e-06  1.222280e-06  5.334235e-06
 1.405494e-05  6.173922e-06  1.026575e-05
 2.074280e-05  3.211919e-06  1.114935e-05
 2.969129e-05 -1.117930e-06  1.570395e-05
 5.133308e-05 -5.396114e-06  1.904694e-05
 6.789959e-05 -8.802892e-06  2.811577e-05
 7.635088e-05 -6.000821e-06  8.299687e-06
 3.173527e-05 -4.017653e-06 -4.886528e-06
-4.830725e-05 -3.333799e-05 -1.889697e-05
-3.240655e-05 -3.816663e-05  1.597073e-05
-2.137286e-05 -1.006257e-05 -3.292661e-06
-1.766666e-05 -1.007682e-05  1.512424e-06
-1.341549e-05 -2.817123e-06 -2.801938e-06
-1.348664e-05 -9.635170e-07 -2.081347e-06
-1.125319e-05  7.721956e-07 -2.884202e-06
-1.054503e-05  1.511827e-06 -2.535558e-06
-9.072237e-06  2.120966e-06 -2.657327e-06
-7.908535e-06  2.178944e-06 -2.452048e-06
-6.000306e-06  2.123571e-06 -2.441951e-06
-4.405417e-06  1.906562e-06 -2.357085e-06
-2.193776e-06  1.672939e-06 -2.342571e-06
-4.163213e-07  1.430616e-06 -2.302549e-06
 1.865248e-06  1.219069e-06 -2.266446e-06
 3.610980e-06  1.050196e-06 -2.192416e-06
 5.752585e-06  9.240488e-07 -2.077974e-06
 7.221251e-06  8.848306e-07 -1.887383e-06
 8.858539e-06  9.153835e-07 -1.596811e-06
 9.591218e-06  1.233821e-06 -1.140348e-06
 1.003925e-05  1.686364e-06 -4.486009e-07
 9.302035e-06  3.332891e-06  7.038062e-07
 9.655801e-06  3.867156e-06  1.845920e-06
 1.000698e-05  5.920354e-06  3.884175e-06
 1.172722e-05  4.636989e-06  4.915667e-06
 2.082603e-05  1.670275e-06  5.877120e-06
 2.294361e-05 -4.765203e-06  6.389288e-06
 2.863437e-05 -1.259633e-05 -3.751278e-06
 3.498233e-05 -2.689636e-05  1.063839e-06
 4.524899e-05 -1.850699e-05 -3.278493e-05
 1.360128e-05  2.416586e-06 -2.018716e-05